MODEL 1
REMARK VINA RESULT:    -4.579      0.000      0.000
REMARK INTER + INTRA:          -4.925
REMARK INTER:                  -4.846
REMARK INTRA:                  -0.078
REMARK UNBOUND:                -0.078
REMARK  Name = C:\Users\sofiya chavarekar\OneDrive\Assignment- Module 1\PROJECT(AI-based drug target identification for SDH-related rare disorders)\Data\Ligands\PDB\Ligand_0008.pdb
REMARK  2 active torsions:
REMARK  status: ('A' for Active; 'I' for Inactive)
REMARK    1  A    between atoms: C_1  and  C_2
REMARK    2  A    between atoms: C_2  and  C_3
REMARK                            x       y       z     vdW  Elec       q    Type
REMARK                         _______ _______ _______ _____ _____    ______ ____
ROOT
ATOM      1  C   UNL     1     -11.126   5.305  25.904  0.00  0.00    +0.000 A 
ATOM      2  C   UNL     1     -11.344   6.496  25.199  0.00  0.00    +0.000 A 
ATOM      3  C   UNL     1     -12.623   7.055  25.131  0.00  0.00    +0.000 A 
ATOM      4  C   UNL     1     -13.691   6.433  25.774  0.00  0.00    +0.000 A 
ATOM      5  C   UNL     1     -13.481   5.259  26.494  0.00  0.00    +0.000 A 
ATOM      6  C   UNL     1     -12.204   4.699  26.563  0.00  0.00    +0.000 A 
ENDROOT
BRANCH   1   8
ATOM      7  C   UNL     1      -9.794   3.189  26.234  0.00  0.00    +0.000 C 
ATOM      8  C   UNL     1      -9.753   4.682  25.951  0.00  0.00    +0.000 C 
ENDBRANCH   1   8
TORSDOF 1
ENDMDL
MODEL 2
REMARK VINA RESULT:    -4.423      0.490      1.755
REMARK INTER + INTRA:          -4.759
REMARK INTER:                  -4.681
REMARK INTRA:                  -0.078
REMARK UNBOUND:                -0.078
REMARK  Name = C:\Users\sofiya chavarekar\OneDrive\Assignment- Module 1\PROJECT(AI-based drug target identification for SDH-related rare disorders)\Data\Ligands\PDB\Ligand_0008.pdb
REMARK  2 active torsions:
REMARK  status: ('A' for Active; 'I' for Inactive)
REMARK    1  A    between atoms: C_1  and  C_2
REMARK    2  A    between atoms: C_2  and  C_3
REMARK                            x       y       z     vdW  Elec       q    Type
REMARK                         _______ _______ _______ _____ _____    ______ ____
ROOT
ATOM      1  C   UNL     1     -10.912   5.359  25.657  0.00  0.00    +0.000 A 
ATOM      2  C   UNL     1     -11.856   4.993  26.627  0.00  0.00    +0.000 A 
ATOM      3  C   UNL     1     -13.013   5.755  26.813  0.00  0.00    +0.000 A 
ATOM      4  C   UNL     1     -13.239   6.882  26.026  0.00  0.00    +0.000 A 
ATOM      5  C   UNL     1     -12.318   7.243  25.045  0.00  0.00    +0.000 A 
ATOM      6  C   UNL     1     -11.161   6.483  24.859  0.00  0.00    +0.000 A 
ENDROOT
BRANCH   1   8
ATOM      7  C   UNL     1      -9.648   3.269  26.285  0.00  0.00    +0.000 C 
ATOM      8  C   UNL     1      -9.648   4.558  25.478  0.00  0.00    +0.000 C 
ENDBRANCH   1   8
TORSDOF 1
ENDMDL
MODEL 3
REMARK VINA RESULT:    -4.289      1.129      3.102
REMARK INTER + INTRA:          -4.618
REMARK INTER:                  -4.549
REMARK INTRA:                  -0.070
REMARK UNBOUND:                -0.078
REMARK  Name = C:\Users\sofiya chavarekar\OneDrive\Assignment- Module 1\PROJECT(AI-based drug target identification for SDH-related rare disorders)\Data\Ligands\PDB\Ligand_0008.pdb
REMARK  2 active torsions:
REMARK  status: ('A' for Active; 'I' for Inactive)
REMARK    1  A    between atoms: C_1  and  C_2
REMARK    2  A    between atoms: C_2  and  C_3
REMARK                            x       y       z     vdW  Elec       q    Type
REMARK                         _______ _______ _______ _____ _____    ______ ____
ROOT
ATOM      1  C   UNL     1     -13.293   5.184  26.385  0.00  0.00    +0.000 A 
ATOM      2  C   UNL     1     -13.650   6.300  25.617  0.00  0.00    +0.000 A 
ATOM      3  C   UNL     1     -12.667   7.083  25.005  0.00  0.00    +0.000 A 
ATOM      4  C   UNL     1     -11.322   6.751  25.148  0.00  0.00    +0.000 A 
ATOM      5  C   UNL     1     -10.957   5.631  25.892  0.00  0.00    +0.000 A 
ATOM      6  C   UNL     1     -11.938   4.849  26.505  0.00  0.00    +0.000 A 
ENDROOT
BRANCH   1   8
ATOM      7  C   UNL     1     -15.327   3.721  26.099  0.00  0.00    +0.000 C 
ATOM      8  C   UNL     1     -14.349   4.357  27.074  0.00  0.00    +0.000 C 
ENDBRANCH   1   8
TORSDOF 1
ENDMDL
MODEL 4
REMARK VINA RESULT:    -4.136      1.193      4.080
REMARK INTER + INTRA:          -4.456
REMARK INTER:                  -4.385
REMARK INTRA:                  -0.070
REMARK UNBOUND:                -0.078
REMARK  Name = C:\Users\sofiya chavarekar\OneDrive\Assignment- Module 1\PROJECT(AI-based drug target identification for SDH-related rare disorders)\Data\Ligands\PDB\Ligand_0008.pdb
REMARK  2 active torsions:
REMARK  status: ('A' for Active; 'I' for Inactive)
REMARK    1  A    between atoms: C_1  and  C_2
REMARK    2  A    between atoms: C_2  and  C_3
REMARK                            x       y       z     vdW  Elec       q    Type
REMARK                         _______ _______ _______ _____ _____    ______ ____
ROOT
ATOM      1  C   UNL     1     -13.215   6.754  25.871  0.00  0.00    +0.000 A 
ATOM      2  C   UNL     1     -12.786   5.672  26.651  0.00  0.00    +0.000 A 
ATOM      3  C   UNL     1     -11.525   5.106  26.446  0.00  0.00    +0.000 A 
ATOM      4  C   UNL     1     -10.680   5.621  25.466  0.00  0.00    +0.000 A 
ATOM      5  C   UNL     1     -11.088   6.710  24.698  0.00  0.00    +0.000 A 
ATOM      6  C   UNL     1     -12.348   7.277  24.902  0.00  0.00    +0.000 A 
ENDROOT
BRANCH   1   8
ATOM      7  C   UNL     1     -14.545   8.816  26.451  0.00  0.00    +0.000 C 
ATOM      8  C   UNL     1     -14.587   7.346  26.067  0.00  0.00    +0.000 C 
ENDBRANCH   1   8
TORSDOF 1
ENDMDL
MODEL 5
REMARK VINA RESULT:    -4.099      1.166      3.723
REMARK INTER + INTRA:          -4.417
REMARK INTER:                  -4.342
REMARK INTRA:                  -0.076
REMARK UNBOUND:                -0.078
REMARK  Name = C:\Users\sofiya chavarekar\OneDrive\Assignment- Module 1\PROJECT(AI-based drug target identification for SDH-related rare disorders)\Data\Ligands\PDB\Ligand_0008.pdb
REMARK  2 active torsions:
REMARK  status: ('A' for Active; 'I' for Inactive)
REMARK    1  A    between atoms: C_1  and  C_2
REMARK    2  A    between atoms: C_2  and  C_3
REMARK                            x       y       z     vdW  Elec       q    Type
REMARK                         _______ _______ _______ _____ _____    ______ ____
ROOT
ATOM      1  C   UNL     1     -13.292   6.691  26.015  0.00  0.00    +0.000 A 
ATOM      2  C   UNL     1     -12.470   7.202  25.002  0.00  0.00    +0.000 A 
ATOM      3  C   UNL     1     -11.200   6.663  24.780  0.00  0.00    +0.000 A 
ATOM      4  C   UNL     1     -10.746   5.603  25.562  0.00  0.00    +0.000 A 
ATOM      5  C   UNL     1     -11.563   5.074  26.558  0.00  0.00    +0.000 A 
ATOM      6  C   UNL     1     -12.832   5.612  26.781  0.00  0.00    +0.000 A 
ENDROOT
BRANCH   1   8
ATOM      7  C   UNL     1     -14.613   8.811  26.362  0.00  0.00    +0.000 C 
ATOM      8  C   UNL     1     -14.649   7.293  26.278  0.00  0.00    +0.000 C 
ENDBRANCH   1   8
TORSDOF 1
ENDMDL
MODEL 6
REMARK VINA RESULT:    -3.965      1.399      2.472
REMARK INTER + INTRA:          -4.275
REMARK INTER:                  -4.199
REMARK INTRA:                  -0.076
REMARK UNBOUND:                -0.078
REMARK  Name = C:\Users\sofiya chavarekar\OneDrive\Assignment- Module 1\PROJECT(AI-based drug target identification for SDH-related rare disorders)\Data\Ligands\PDB\Ligand_0008.pdb
REMARK  2 active torsions:
REMARK  status: ('A' for Active; 'I' for Inactive)
REMARK    1  A    between atoms: C_1  and  C_2
REMARK    2  A    between atoms: C_2  and  C_3
REMARK                            x       y       z     vdW  Elec       q    Type
REMARK                         _______ _______ _______ _____ _____    ______ ____
ROOT
ATOM      1  C   UNL     1     -13.121   6.598  25.963  0.00  0.00    +0.000 A 
ATOM      2  C   UNL     1     -13.831   7.798  26.097  0.00  0.00    +0.000 A 
ATOM      3  C   UNL     1     -15.143   7.795  26.578  0.00  0.00    +0.000 A 
ATOM      4  C   UNL     1     -15.752   6.595  26.937  0.00  0.00    +0.000 A 
ATOM      5  C   UNL     1     -15.047   5.398  26.827  0.00  0.00    +0.000 A 
ATOM      6  C   UNL     1     -13.737   5.399  26.346  0.00  0.00    +0.000 A 
ENDROOT
BRANCH   1   8
ATOM      7  C   UNL     1     -10.832   5.544  26.063  0.00  0.00    +0.000 C 
ATOM      8  C   UNL     1     -11.717   6.594  25.412  0.00  0.00    +0.000 C 
ENDBRANCH   1   8
TORSDOF 1
ENDMDL
MODEL 7
REMARK VINA RESULT:    -3.515      2.352      3.957
REMARK INTER + INTRA:          -3.799
REMARK INTER:                  -3.732
REMARK INTRA:                  -0.067
REMARK UNBOUND:                -0.078
REMARK  Name = C:\Users\sofiya chavarekar\OneDrive\Assignment- Module 1\PROJECT(AI-based drug target identification for SDH-related rare disorders)\Data\Ligands\PDB\Ligand_0008.pdb
REMARK  2 active torsions:
REMARK  status: ('A' for Active; 'I' for Inactive)
REMARK    1  A    between atoms: C_1  and  C_2
REMARK    2  A    between atoms: C_2  and  C_3
REMARK                            x       y       z     vdW  Elec       q    Type
REMARK                         _______ _______ _______ _____ _____    ______ ____
ROOT
ATOM      1  C   UNL     1     -13.867   4.509  26.974  0.00  0.00    +0.000 A 
ATOM      2  C   UNL     1     -13.649   3.368  27.758  0.00  0.00    +0.000 A 
ATOM      3  C   UNL     1     -14.535   2.289  27.701  0.00  0.00    +0.000 A 
ATOM      4  C   UNL     1     -15.641   2.338  26.855  0.00  0.00    +0.000 A 
ATOM      5  C   UNL     1     -15.856   3.459  26.056  0.00  0.00    +0.000 A 
ATOM      6  C   UNL     1     -14.972   4.538  26.112  0.00  0.00    +0.000 A 
ENDROOT
BRANCH   1   8
ATOM      7  C   UNL     1     -11.841   5.651  25.999  0.00  0.00    +0.000 C 
ATOM      8  C   UNL     1     -12.931   5.688  27.058  0.00  0.00    +0.000 C 
ENDBRANCH   1   8
TORSDOF 1
ENDMDL
MODEL 8
REMARK VINA RESULT:    -3.147     10.119     11.411
REMARK INTER + INTRA:          -3.410
REMARK INTER:                  -3.340
REMARK INTRA:                  -0.070
REMARK UNBOUND:                -0.078
REMARK  Name = C:\Users\sofiya chavarekar\OneDrive\Assignment- Module 1\PROJECT(AI-based drug target identification for SDH-related rare disorders)\Data\Ligands\PDB\Ligand_0008.pdb
REMARK  2 active torsions:
REMARK  status: ('A' for Active; 'I' for Inactive)
REMARK    1  A    between atoms: C_1  and  C_2
REMARK    2  A    between atoms: C_2  and  C_3
REMARK                            x       y       z     vdW  Elec       q    Type
REMARK                         _______ _______ _______ _____ _____    ______ ____
ROOT
ATOM      1  C   UNL     1     -18.340  -1.073  32.217  0.00  0.00    +0.000 A 
ATOM      2  C   UNL     1     -19.693  -0.884  32.530  0.00  0.00    +0.000 A 
ATOM      3  C   UNL     1     -20.685  -1.173  31.589  0.00  0.00    +0.000 A 
ATOM      4  C   UNL     1     -20.333  -1.660  30.333  0.00  0.00    +0.000 A 
ATOM      5  C   UNL     1     -18.992  -1.871  30.018  0.00  0.00    +0.000 A 
ATOM      6  C   UNL     1     -18.000  -1.582  30.957  0.00  0.00    +0.000 A 
ENDROOT
BRANCH   1   8
ATOM      7  C   UNL     1     -16.774   0.702  33.087  0.00  0.00    +0.000 C 
ATOM      8  C   UNL     1     -17.266  -0.731  33.219  0.00  0.00    +0.000 C 
ENDBRANCH   1   8
TORSDOF 1
ENDMDL
MODEL 9
REMARK VINA RESULT:    -3.129     11.157     12.228
REMARK INTER + INTRA:          -3.390
REMARK INTER:                  -3.312
REMARK INTRA:                  -0.078
REMARK UNBOUND:                -0.078
REMARK  Name = C:\Users\sofiya chavarekar\OneDrive\Assignment- Module 1\PROJECT(AI-based drug target identification for SDH-related rare disorders)\Data\Ligands\PDB\Ligand_0008.pdb
REMARK  2 active torsions:
REMARK  status: ('A' for Active; 'I' for Inactive)
REMARK    1  A    between atoms: C_1  and  C_2
REMARK    2  A    between atoms: C_2  and  C_3
REMARK                            x       y       z     vdW  Elec       q    Type
REMARK                         _______ _______ _______ _____ _____    ______ ____
ROOT
ATOM      1  C   UNL     1     -19.053  -2.506  22.236  0.00  0.00    +0.000 A 
ATOM      2  C   UNL     1     -18.709  -3.633  22.995  0.00  0.00    +0.000 A 
ATOM      3  C   UNL     1     -19.137  -4.906  22.608  0.00  0.00    +0.000 A 
ATOM      4  C   UNL     1     -19.905  -5.063  21.456  0.00  0.00    +0.000 A 
ATOM      5  C   UNL     1     -20.236  -3.952  20.683  0.00  0.00    +0.000 A 
ATOM      6  C   UNL     1     -19.809  -2.679  21.069  0.00  0.00    +0.000 A 
ENDROOT
BRANCH   1   8
ATOM      7  C   UNL     1     -17.623  -1.159  23.817  0.00  0.00    +0.000 C 
ATOM      8  C   UNL     1     -18.620  -1.129  22.670  0.00  0.00    +0.000 C 
ENDBRANCH   1   8
TORSDOF 1
ENDMDL
