MODEL 1
REMARK VINA RESULT:    -3.282      0.000      0.000
REMARK INTER + INTRA:          -4.077
REMARK INTER:                  -3.857
REMARK INTRA:                  -0.219
REMARK UNBOUND:                -0.219
REMARK  Name = C:\Users\sofiya chavarekar\OneDrive\Assignment- Module 1\PROJECT(AI-based drug target identification for SDH-related rare disorders)\Data\Ligands\PDB\Ligand_0097.pdb
REMARK  6 active torsions:
REMARK  status: ('A' for Active; 'I' for Inactive)
REMARK    1  A    between atoms: C_1  and  C_2
REMARK    2  A    between atoms: C_2  and  C_3
REMARK    3  A    between atoms: C_3  and  O_4
REMARK    4  A    between atoms: O_4  and  C_5
REMARK    5  A    between atoms: C_5  and  C_6
REMARK    6  A    between atoms: C_5  and  C_7
REMARK                            x       y       z     vdW  Elec       q    Type
REMARK                         _______ _______ _______ _____ _____    ______ ____
ROOT
ATOM      1  O   UNL     1     -13.044   6.326  27.251  0.00  0.00    +0.000 OA
ENDROOT
BRANCH   1   2
ATOM      2  C   UNL     1     -14.319   5.685  27.378  0.00  0.00    +0.000 C 
ATOM      3  C   UNL     1     -14.626   4.811  26.164  0.00  0.00    +0.000 C 
ATOM      4  C   UNL     1     -14.265   4.831  28.641  0.00  0.00    +0.000 C 
ENDBRANCH   1   2
BRANCH   1   5
ATOM      5  C   UNL     1     -12.879   7.048  26.034  0.00  0.00    +0.000 C 
BRANCH   5   7
ATOM      6  C   UNL     1     -10.891   5.470  26.069  0.00  0.00    +0.000 C 
ATOM      7  C   UNL     1     -11.567   6.638  25.369  0.00  0.00    +0.000 C 
ENDBRANCH   5   7
ENDBRANCH   1   5
TORSDOF 3
ENDMDL
MODEL 2
REMARK VINA RESULT:    -3.238      0.992      3.370
REMARK INTER + INTRA:          -4.025
REMARK INTER:                  -3.828
REMARK INTRA:                  -0.198
REMARK UNBOUND:                -0.219
REMARK  Name = C:\Users\sofiya chavarekar\OneDrive\Assignment- Module 1\PROJECT(AI-based drug target identification for SDH-related rare disorders)\Data\Ligands\PDB\Ligand_0097.pdb
REMARK  6 active torsions:
REMARK  status: ('A' for Active; 'I' for Inactive)
REMARK    1  A    between atoms: C_1  and  C_2
REMARK    2  A    between atoms: C_2  and  C_3
REMARK    3  A    between atoms: C_3  and  O_4
REMARK    4  A    between atoms: O_4  and  C_5
REMARK    5  A    between atoms: C_5  and  C_6
REMARK    6  A    between atoms: C_5  and  C_7
REMARK                            x       y       z     vdW  Elec       q    Type
REMARK                         _______ _______ _______ _____ _____    ______ ____
ROOT
ATOM      1  O   UNL     1     -13.013   5.987  27.465  0.00  0.00    +0.000 OA
ENDROOT
BRANCH   1   2
ATOM      2  C   UNL     1     -12.599   5.836  26.103  0.00  0.00    +0.000 C 
ATOM      3  C   UNL     1     -13.067   7.007  25.244  0.00  0.00    +0.000 C 
ATOM      4  C   UNL     1     -11.075   5.762  26.106  0.00  0.00    +0.000 C 
ENDBRANCH   1   2
BRANCH   1   5
ATOM      5  C   UNL     1     -14.160   5.213  27.809  0.00  0.00    +0.000 C 
BRANCH   5   7
ATOM      6  C   UNL     1     -15.423   3.613  26.296  0.00  0.00    +0.000 C 
ATOM      7  C   UNL     1     -14.131   3.889  27.049  0.00  0.00    +0.000 C 
ENDBRANCH   5   7
ENDBRANCH   1   5
TORSDOF 3
ENDMDL
MODEL 3
REMARK VINA RESULT:    -3.220      1.644      2.323
REMARK INTER + INTRA:          -4.004
REMARK INTER:                  -3.910
REMARK INTRA:                  -0.095
REMARK UNBOUND:                -0.219
REMARK  Name = C:\Users\sofiya chavarekar\OneDrive\Assignment- Module 1\PROJECT(AI-based drug target identification for SDH-related rare disorders)\Data\Ligands\PDB\Ligand_0097.pdb
REMARK  6 active torsions:
REMARK  status: ('A' for Active; 'I' for Inactive)
REMARK    1  A    between atoms: C_1  and  C_2
REMARK    2  A    between atoms: C_2  and  C_3
REMARK    3  A    between atoms: C_3  and  O_4
REMARK    4  A    between atoms: O_4  and  C_5
REMARK    5  A    between atoms: C_5  and  C_6
REMARK    6  A    between atoms: C_5  and  C_7
REMARK                            x       y       z     vdW  Elec       q    Type
REMARK                         _______ _______ _______ _____ _____    ______ ____
ROOT
ATOM      1  O   UNL     1     -13.414   7.040  26.949  0.00  0.00    +0.000 OA
ENDROOT
BRANCH   1   2
ATOM      2  C   UNL     1     -14.563   7.543  26.257  0.00  0.00    +0.000 C 
ATOM      3  C   UNL     1     -15.858   7.020  26.875  0.00  0.00    +0.000 C 
ATOM      4  C   UNL     1     -14.511   9.065  26.352  0.00  0.00    +0.000 C 
ENDBRANCH   1   2
BRANCH   1   5
ATOM      5  C   UNL     1     -12.840   5.881  26.350  0.00  0.00    +0.000 C 
BRANCH   5   7
ATOM      6  C   UNL     1     -10.463   5.103  25.921  0.00  0.00    +0.000 C 
ATOM      7  C   UNL     1     -11.472   6.230  25.768  0.00  0.00    +0.000 C 
ENDBRANCH   5   7
ENDBRANCH   1   5
TORSDOF 3
ENDMDL
MODEL 4
REMARK VINA RESULT:    -3.197      1.027      3.271
REMARK INTER + INTRA:          -3.977
REMARK INTER:                  -3.672
REMARK INTRA:                  -0.305
REMARK UNBOUND:                -0.219
REMARK  Name = C:\Users\sofiya chavarekar\OneDrive\Assignment- Module 1\PROJECT(AI-based drug target identification for SDH-related rare disorders)\Data\Ligands\PDB\Ligand_0097.pdb
REMARK  6 active torsions:
REMARK  status: ('A' for Active; 'I' for Inactive)
REMARK    1  A    between atoms: C_1  and  C_2
REMARK    2  A    between atoms: C_2  and  C_3
REMARK    3  A    between atoms: C_3  and  O_4
REMARK    4  A    between atoms: O_4  and  C_5
REMARK    5  A    between atoms: C_5  and  C_6
REMARK    6  A    between atoms: C_5  and  C_7
REMARK                            x       y       z     vdW  Elec       q    Type
REMARK                         _______ _______ _______ _____ _____    ______ ____
ROOT
ATOM      1  O   UNL     1     -12.999   6.155  27.680  0.00  0.00    +0.000 OA
ENDROOT
BRANCH   1   2
ATOM      2  C   UNL     1     -12.499   6.546  26.395  0.00  0.00    +0.000 C 
ATOM      3  C   UNL     1     -11.323   5.673  25.965  0.00  0.00    +0.000 C 
ATOM      4  C   UNL     1     -13.651   6.402  25.406  0.00  0.00    +0.000 C 
ENDBRANCH   1   2
BRANCH   1   5
ATOM      5  C   UNL     1     -14.296   5.567  27.640  0.00  0.00    +0.000 C 
BRANCH   5   7
ATOM      6  C   UNL     1     -13.690   3.104  27.556  0.00  0.00    +0.000 C 
ATOM      7  C   UNL     1     -14.278   4.235  28.384  0.00  0.00    +0.000 C 
ENDBRANCH   5   7
ENDBRANCH   1   5
TORSDOF 3
ENDMDL
MODEL 5
REMARK VINA RESULT:    -3.149      2.639      3.383
REMARK INTER + INTRA:          -3.921
REMARK INTER:                  -3.776
REMARK INTRA:                  -0.145
REMARK UNBOUND:                -0.219
REMARK  Name = C:\Users\sofiya chavarekar\OneDrive\Assignment- Module 1\PROJECT(AI-based drug target identification for SDH-related rare disorders)\Data\Ligands\PDB\Ligand_0097.pdb
REMARK  6 active torsions:
REMARK  status: ('A' for Active; 'I' for Inactive)
REMARK    1  A    between atoms: C_1  and  C_2
REMARK    2  A    between atoms: C_2  and  C_3
REMARK    3  A    between atoms: C_3  and  O_4
REMARK    4  A    between atoms: O_4  and  C_5
REMARK    5  A    between atoms: C_5  and  C_6
REMARK    6  A    between atoms: C_5  and  C_7
REMARK                            x       y       z     vdW  Elec       q    Type
REMARK                         _______ _______ _______ _____ _____    ______ ____
ROOT
ATOM      1  O   UNL     1     -14.000   8.492  26.685  0.00  0.00    +0.000 OA
ENDROOT
BRANCH   1   2
ATOM      2  C   UNL     1     -15.212   9.253  26.642  0.00  0.00    +0.000 C 
ATOM      3  C   UNL     1     -15.063  10.489  25.758  0.00  0.00    +0.000 C 
ATOM      4  C   UNL     1     -16.296   8.336  26.084  0.00  0.00    +0.000 C 
ENDBRANCH   1   2
BRANCH   1   5
ATOM      5  C   UNL     1     -14.101   7.210  26.069  0.00  0.00    +0.000 C 
BRANCH   5   7
ATOM      6  C   UNL     1     -11.806   6.131  25.955  0.00  0.00    +0.000 C 
ATOM      7  C   UNL     1     -12.857   6.950  25.222  0.00  0.00    +0.000 C 
ENDBRANCH   5   7
ENDBRANCH   1   5
TORSDOF 3
ENDMDL
MODEL 6
REMARK VINA RESULT:    -3.011      2.072      3.416
REMARK INTER + INTRA:          -3.758
REMARK INTER:                  -3.687
REMARK INTRA:                  -0.071
REMARK UNBOUND:                -0.219
REMARK  Name = C:\Users\sofiya chavarekar\OneDrive\Assignment- Module 1\PROJECT(AI-based drug target identification for SDH-related rare disorders)\Data\Ligands\PDB\Ligand_0097.pdb
REMARK  6 active torsions:
REMARK  status: ('A' for Active; 'I' for Inactive)
REMARK    1  A    between atoms: C_1  and  C_2
REMARK    2  A    between atoms: C_2  and  C_3
REMARK    3  A    between atoms: C_3  and  O_4
REMARK    4  A    between atoms: O_4  and  C_5
REMARK    5  A    between atoms: C_5  and  C_6
REMARK    6  A    between atoms: C_5  and  C_7
REMARK                            x       y       z     vdW  Elec       q    Type
REMARK                         _______ _______ _______ _____ _____    ______ ____
ROOT
ATOM      1  O   UNL     1     -13.242   7.061  26.836  0.00  0.00    +0.000 OA
ENDROOT
BRANCH   1   2
ATOM      2  C   UNL     1     -12.738   5.946  26.092  0.00  0.00    +0.000 C 
ATOM      3  C   UNL     1     -11.212   5.943  26.056  0.00  0.00    +0.000 C 
ATOM      4  C   UNL     1     -13.251   4.683  26.777  0.00  0.00    +0.000 C 
ENDBRANCH   1   2
BRANCH   1   5
ATOM      5  C   UNL     1     -14.501   7.543  26.373  0.00  0.00    +0.000 C 
BRANCH   5   7
ATOM      6  C   UNL     1     -15.537   9.622  27.396  0.00  0.00    +0.000 C 
ATOM      7  C   UNL     1     -14.513   9.069  26.417  0.00  0.00    +0.000 C 
ENDBRANCH   5   7
ENDBRANCH   1   5
TORSDOF 3
ENDMDL
MODEL 7
REMARK VINA RESULT:    -2.476     10.516     11.628
REMARK INTER + INTRA:          -3.130
REMARK INTER:                  -2.920
REMARK INTRA:                  -0.210
REMARK UNBOUND:                -0.219
REMARK  Name = C:\Users\sofiya chavarekar\OneDrive\Assignment- Module 1\PROJECT(AI-based drug target identification for SDH-related rare disorders)\Data\Ligands\PDB\Ligand_0097.pdb
REMARK  6 active torsions:
REMARK  status: ('A' for Active; 'I' for Inactive)
REMARK    1  A    between atoms: C_1  and  C_2
REMARK    2  A    between atoms: C_2  and  C_3
REMARK    3  A    between atoms: C_3  and  O_4
REMARK    4  A    between atoms: O_4  and  C_5
REMARK    5  A    between atoms: C_5  and  C_6
REMARK    6  A    between atoms: C_5  and  C_7
REMARK                            x       y       z     vdW  Elec       q    Type
REMARK                         _______ _______ _______ _____ _____    ______ ____
ROOT
ATOM      1  O   UNL     1     -19.406  -0.980  21.147  0.00  0.00    +0.000 OA
ENDROOT
BRANCH   1   2
ATOM      2  C   UNL     1     -20.015  -2.258  21.361  0.00  0.00    +0.000 C 
ATOM      3  C   UNL     1     -20.267  -2.984  20.042  0.00  0.00    +0.000 C 
ATOM      4  C   UNL     1     -19.059  -3.068  22.233  0.00  0.00    +0.000 C 
ENDBRANCH   1   2
BRANCH   1   5
ATOM      5  C   UNL     1     -20.049   0.089  21.836  0.00  0.00    +0.000 C 
BRANCH   5   7
ATOM      6  C   UNL     1     -20.893   1.112  19.673  0.00  0.00    +0.000 C 
ATOM      7  C   UNL     1     -21.263   0.556  21.039  0.00  0.00    +0.000 C 
ENDBRANCH   5   7
ENDBRANCH   1   5
TORSDOF 3
ENDMDL
MODEL 8
REMARK VINA RESULT:    -2.279      2.878      4.738
REMARK INTER + INTRA:          -2.899
REMARK INTER:                  -2.701
REMARK INTRA:                  -0.198
REMARK UNBOUND:                -0.219
REMARK  Name = C:\Users\sofiya chavarekar\OneDrive\Assignment- Module 1\PROJECT(AI-based drug target identification for SDH-related rare disorders)\Data\Ligands\PDB\Ligand_0097.pdb
REMARK  6 active torsions:
REMARK  status: ('A' for Active; 'I' for Inactive)
REMARK    1  A    between atoms: C_1  and  C_2
REMARK    2  A    between atoms: C_2  and  C_3
REMARK    3  A    between atoms: C_3  and  O_4
REMARK    4  A    between atoms: O_4  and  C_5
REMARK    5  A    between atoms: C_5  and  C_6
REMARK    6  A    between atoms: C_5  and  C_7
REMARK                            x       y       z     vdW  Elec       q    Type
REMARK                         _______ _______ _______ _____ _____    ______ ____
ROOT
ATOM      1  O   UNL     1     -15.322   8.534  27.782  0.00  0.00    +0.000 OA
ENDROOT
BRANCH   1   2
ATOM      2  C   UNL     1     -15.105   8.622  26.369  0.00  0.00    +0.000 C 
ATOM      3  C   UNL     1     -14.881  10.067  25.929  0.00  0.00    +0.000 C 
ATOM      4  C   UNL     1     -13.873   7.779  26.053  0.00  0.00    +0.000 C 
ENDBRANCH   1   2
BRANCH   1   5
ATOM      5  C   UNL     1     -16.600   8.011  28.138  0.00  0.00    +0.000 C 
BRANCH   5   7
ATOM      6  C   UNL     1     -17.082   5.614  27.455  0.00  0.00    +0.000 C 
ATOM      7  C   UNL     1     -16.467   6.534  28.498  0.00  0.00    +0.000 C 
ENDBRANCH   5   7
ENDBRANCH   1   5
TORSDOF 3
ENDMDL
MODEL 9
REMARK VINA RESULT:    -2.279      9.975     10.854
REMARK INTER + INTRA:          -2.898
REMARK INTER:                  -2.764
REMARK INTRA:                  -0.135
REMARK UNBOUND:                -0.219
REMARK  Name = C:\Users\sofiya chavarekar\OneDrive\Assignment- Module 1\PROJECT(AI-based drug target identification for SDH-related rare disorders)\Data\Ligands\PDB\Ligand_0097.pdb
REMARK  6 active torsions:
REMARK  status: ('A' for Active; 'I' for Inactive)
REMARK    1  A    between atoms: C_1  and  C_2
REMARK    2  A    between atoms: C_2  and  C_3
REMARK    3  A    between atoms: C_3  and  O_4
REMARK    4  A    between atoms: O_4  and  C_5
REMARK    5  A    between atoms: C_5  and  C_6
REMARK    6  A    between atoms: C_5  and  C_7
REMARK                            x       y       z     vdW  Elec       q    Type
REMARK                         _______ _______ _______ _____ _____    ______ ____
ROOT
ATOM      1  O   UNL     1     -19.588  -0.472  33.059  0.00  0.00    +0.000 OA
ENDROOT
BRANCH   1   2
ATOM      2  C   UNL     1     -18.356   0.213  32.805  0.00  0.00    +0.000 C 
ATOM      3  C   UNL     1     -18.343   1.595  33.453  0.00  0.00    +0.000 C 
ATOM      4  C   UNL     1     -17.238  -0.650  33.382  0.00  0.00    +0.000 C 
ENDBRANCH   1   2
BRANCH   1   5
ATOM      5  C   UNL     1     -19.965  -1.382  32.030  0.00  0.00    +0.000 C 
BRANCH   5   7
ATOM      6  C   UNL     1     -20.900   0.217  30.295  0.00  0.00    +0.000 C 
ATOM      7  C   UNL     1     -21.212  -0.863  31.319  0.00  0.00    +0.000 C 
ENDBRANCH   5   7
ENDBRANCH   1   5
TORSDOF 3
ENDMDL
