MODEL 1
REMARK VINA RESULT:    -7.003      0.000      0.000
REMARK INTER + INTRA:          -9.817
REMARK INTER:                  -9.049
REMARK INTRA:                  -0.767
REMARK UNBOUND:                -0.767
REMARK  Name = C:\Users\sofiya chavarekar\OneDrive\Assignment- Module 1\PROJECT(AI-based drug target identification for SDH-related rare disorders)\Data\Ligands\PDB\Ligand_0102.pdb
REMARK  9 active torsions:
REMARK  status: ('A' for Active; 'I' for Inactive)
REMARK    1  A    between atoms: C1_1  and  C2_2
REMARK    2  A    between atoms: C2_2  and  O2_4
REMARK    3  A    between atoms: O2_4  and  C3_5
REMARK    4  A    between atoms: C3_5  and  C4_6
REMARK    5  A    between atoms: C4_6  and  C5_8
REMARK    6  A    between atoms: C5_8  and  O4_9
REMARK    7  A    between atoms: C17_22  and  C18_23
REMARK    8  A    between atoms: C20_25  and  O6_26
REMARK    9  A    between atoms: C22_28  and  C23_29
REMARK                            x       y       z     vdW  Elec       q    Type
REMARK                         _______ _______ _______ _____ _____    ______ ____
ROOT
ATOM      1  C5  UNL     1     -15.774   0.707  27.244  0.00  0.00    +0.000 C 
ATOM      2  C6  UNL     1     -14.941   1.926  27.650  0.00  0.00    +0.000 C 
ATOM      3  C7  UNL     1     -15.366   2.221  29.069  0.00  0.00    +0.000 C 
ATOM      4  C8  UNL     1     -16.884   2.015  29.041  0.00  0.00    +0.000 C 
ATOM      5  C9  UNL     1     -17.609   2.082  30.414  0.00  0.00    +0.000 C 
ATOM      6  C10 UNL     1     -16.795   2.850  31.483  0.00  0.00    +0.000 C 
ATOM      7  C11 UNL     1     -17.172   2.579  32.927  0.00  0.00    +0.000 C 
ATOM      8  C12 UNL     1     -18.579   2.085  33.020  0.00  0.00    +0.000 C 
ATOM      9  C13 UNL     1     -19.523   2.817  33.631  0.00  0.00    +0.000 C 
ATOM     10  C14 UNL     1     -20.919   2.351  33.695  0.00  0.00    +0.000 C 
ATOM     11  O5  UNL     1     -21.755   2.937  34.370  0.00  0.00    +0.000 OA
ATOM     12  C15 UNL     1     -21.276   1.163  32.897  0.00  0.00    +0.000 C 
ATOM     13  C16 UNL     1     -20.334   0.446  32.287  0.00  0.00    +0.000 C 
ATOM     14  C17 UNL     1     -18.835   0.744  32.347  0.00  0.00    +0.000 C 
ATOM     15  C18 UNL     1     -18.265  -0.367  33.259  0.00  0.00    +0.000 C 
ATOM     16  C19 UNL     1     -18.294   0.761  30.861  0.00  0.00    +0.000 C 
ATOM     17  C20 UNL     1     -17.500  -0.473  30.431  0.00  0.00    +0.000 C 
ATOM     18  C21 UNL     1     -17.395  -0.563  28.910  0.00  0.00    +0.000 C 
ATOM     19  C22 UNL     1     -17.095   0.756  28.136  0.00  0.00    +0.000 C 
ATOM     20  C23 UNL     1     -18.348   1.016  27.250  0.00  0.00    +0.000 C 
ENDROOT
BRANCH   1  21
ATOM     21  C4  UNL     1     -14.954  -0.616  27.265  0.00  0.00    +0.000 C 
ATOM     22  O3  UNL     1     -15.314  -1.574  26.566  0.00  0.00    +0.000 OA
BRANCH  21  23
ATOM     23  C3  UNL     1     -13.676  -0.706  28.106  0.00  0.00    +0.000 C 
BRANCH  23  24
ATOM     24  O2  UNL     1     -13.991  -0.824  29.502  0.00  0.00    +0.000 OA
BRANCH  24  26
ATOM     25  C1  UNL     1     -11.779  -1.618  29.501  0.00  0.00    +0.000 C 
ATOM     26  C2  UNL     1     -13.078  -1.514  30.240  0.00  0.00    +0.000 C 
ATOM     27  O1  UNL     1     -13.273  -1.958  31.365  0.00  0.00    +0.000 OA
ENDBRANCH  24  26
ENDBRANCH  23  24
ENDBRANCH  21  23
ENDBRANCH   1  21
BRANCH   1  28
ATOM     28  O4  UNL     1     -16.115   0.942  25.862  0.00  0.00    +0.000 OA
ATOM     29  H6  UNL     1     -17.069   0.764  25.755  0.00  0.00    +0.000 HD
ENDBRANCH   1  28
BRANCH  17  30
ATOM     30  O6  UNL     1     -16.205  -0.475  31.012  0.00  0.00    +0.000 OA
ATOM     31  H25 UNL     1     -15.694  -1.156  30.528  0.00  0.00    +0.000 HD
ENDBRANCH  17  30
TORSDOF 6
ENDMDL
MODEL 2
REMARK VINA RESULT:    -6.921      2.762      6.912
REMARK INTER + INTRA:          -9.712
REMARK INTER:                  -8.858
REMARK INTRA:                  -0.854
REMARK UNBOUND:                -0.767
REMARK  Name = C:\Users\sofiya chavarekar\OneDrive\Assignment- Module 1\PROJECT(AI-based drug target identification for SDH-related rare disorders)\Data\Ligands\PDB\Ligand_0102.pdb
REMARK  9 active torsions:
REMARK  status: ('A' for Active; 'I' for Inactive)
REMARK    1  A    between atoms: C1_1  and  C2_2
REMARK    2  A    between atoms: C2_2  and  O2_4
REMARK    3  A    between atoms: O2_4  and  C3_5
REMARK    4  A    between atoms: C3_5  and  C4_6
REMARK    5  A    between atoms: C4_6  and  C5_8
REMARK    6  A    between atoms: C5_8  and  O4_9
REMARK    7  A    between atoms: C17_22  and  C18_23
REMARK    8  A    between atoms: C20_25  and  O6_26
REMARK    9  A    between atoms: C22_28  and  C23_29
REMARK                            x       y       z     vdW  Elec       q    Type
REMARK                         _______ _______ _______ _____ _____    ______ ____
ROOT
ATOM      1  C5  UNL     1     -19.920   0.305  32.136  0.00  0.00    +0.000 C 
ATOM      2  C6  UNL     1     -20.025   1.831  32.066  0.00  0.00    +0.000 C 
ATOM      3  C7  UNL     1     -18.990   2.238  31.044  0.00  0.00    +0.000 C 
ATOM      4  C8  UNL     1     -17.795   1.335  31.364  0.00  0.00    +0.000 C 
ATOM      5  C9  UNL     1     -16.605   1.396  30.365  0.00  0.00    +0.000 C 
ATOM      6  C10 UNL     1     -16.588   2.701  29.534  0.00  0.00    +0.000 C 
ATOM      7  C11 UNL     1     -15.784   2.660  28.249  0.00  0.00    +0.000 C 
ATOM      8  C12 UNL     1     -14.735   1.598  28.317  0.00  0.00    +0.000 C 
ATOM      9  C13 UNL     1     -13.432   1.920  28.313  0.00  0.00    +0.000 C 
ATOM     10  C14 UNL     1     -12.395   0.880  28.416  0.00  0.00    +0.000 C 
ATOM     11  O5  UNL     1     -11.209   1.147  28.269  0.00  0.00    +0.000 OA
ATOM     12  C15 UNL     1     -12.837  -0.493  28.724  0.00  0.00    +0.000 C 
ATOM     13  C16 UNL     1     -14.132  -0.803  28.734  0.00  0.00    +0.000 C 
ATOM     14  C17 UNL     1     -15.267   0.176  28.427  0.00  0.00    +0.000 C 
ATOM     15  C18 UNL     1     -15.774  -0.257  27.033  0.00  0.00    +0.000 C 
ATOM     16  C19 UNL     1     -16.316   0.071  29.606  0.00  0.00    +0.000 C 
ATOM     17  C20 UNL     1     -17.597  -0.700  29.285  0.00  0.00    +0.000 C 
ATOM     18  C21 UNL     1     -18.331  -1.112  30.559  0.00  0.00    +0.000 C 
ATOM     19  C22 UNL     1     -18.428  -0.055  31.701  0.00  0.00    +0.000 C 
ATOM     20  C23 UNL     1     -17.636  -0.658  32.898  0.00  0.00    +0.000 C 
ENDROOT
BRANCH   1  21
ATOM     21  C4  UNL     1     -21.072  -0.413  31.375  0.00  0.00    +0.000 C 
ATOM     22  O3  UNL     1     -21.426  -1.548  31.725  0.00  0.00    +0.000 OA
BRANCH  21  23
ATOM     23  C3  UNL     1     -21.799   0.310  30.236  0.00  0.00    +0.000 C 
BRANCH  23  24
ATOM     24  O2  UNL     1     -21.416  -0.231  28.962  0.00  0.00    +0.000 OA
BRANCH  24  26
ATOM     25  C1  UNL     1     -21.033  -2.352  28.027  0.00  0.00    +0.000 C 
ATOM     26  C2  UNL     1     -22.023  -1.403  28.630  0.00  0.00    +0.000 C 
ATOM     27  O1  UNL     1     -23.203  -1.665  28.827  0.00  0.00    +0.000 OA
ENDBRANCH  24  26
ENDBRANCH  23  24
ENDBRANCH  21  23
ENDBRANCH   1  21
BRANCH   1  28
ATOM     28  O4  UNL     1     -20.106  -0.010  33.531  0.00  0.00    +0.000 OA
ATOM     29  H6  UNL     1     -19.997  -0.974  33.636  0.00  0.00    +0.000 HD
ENDBRANCH   1  28
BRANCH  17  30
ATOM     30  O6  UNL     1     -18.456   0.062  28.451  0.00  0.00    +0.000 OA
ATOM     31  H25 UNL     1     -17.998   0.137  27.589  0.00  0.00    +0.000 HD
ENDBRANCH  17  30
TORSDOF 6
ENDMDL
MODEL 3
REMARK VINA RESULT:    -6.661      2.900      6.723
REMARK INTER + INTRA:          -9.375
REMARK INTER:                  -8.416
REMARK INTRA:                  -0.959
REMARK UNBOUND:                -0.767
REMARK  Name = C:\Users\sofiya chavarekar\OneDrive\Assignment- Module 1\PROJECT(AI-based drug target identification for SDH-related rare disorders)\Data\Ligands\PDB\Ligand_0102.pdb
REMARK  9 active torsions:
REMARK  status: ('A' for Active; 'I' for Inactive)
REMARK    1  A    between atoms: C1_1  and  C2_2
REMARK    2  A    between atoms: C2_2  and  O2_4
REMARK    3  A    between atoms: O2_4  and  C3_5
REMARK    4  A    between atoms: C3_5  and  C4_6
REMARK    5  A    between atoms: C4_6  and  C5_8
REMARK    6  A    between atoms: C5_8  and  O4_9
REMARK    7  A    between atoms: C17_22  and  C18_23
REMARK    8  A    between atoms: C20_25  and  O6_26
REMARK    9  A    between atoms: C22_28  and  C23_29
REMARK                            x       y       z     vdW  Elec       q    Type
REMARK                         _______ _______ _______ _____ _____    ______ ____
ROOT
ATOM      1  C5  UNL     1     -18.524   0.071  32.694  0.00  0.00    +0.000 C 
ATOM      2  C6  UNL     1     -18.912   1.335  33.467  0.00  0.00    +0.000 C 
ATOM      3  C7  UNL     1     -18.571   2.471  32.533  0.00  0.00    +0.000 C 
ATOM      4  C8  UNL     1     -17.230   2.047  31.924  0.00  0.00    +0.000 C 
ATOM      5  C9  UNL     1     -16.685   2.944  30.777  0.00  0.00    +0.000 C 
ATOM      6  C10 UNL     1     -17.289   4.369  30.793  0.00  0.00    +0.000 C 
ATOM      7  C11 UNL     1     -17.194   5.146  29.495  0.00  0.00    +0.000 C 
ATOM      8  C12 UNL     1     -16.072   4.631  28.653  0.00  0.00    +0.000 C 
ATOM      9  C13 UNL     1     -15.005   5.400  28.390  0.00  0.00    +0.000 C 
ATOM     10  C14 UNL     1     -13.879   4.886  27.591  0.00  0.00    +0.000 C 
ATOM     11  O5  UNL     1     -12.971   5.619  27.225  0.00  0.00    +0.000 OA
ATOM     12  C15 UNL     1     -13.879   3.447  27.266  0.00  0.00    +0.000 C 
ATOM     13  C16 UNL     1     -14.939   2.689  27.537  0.00  0.00    +0.000 C 
ATOM     14  C17 UNL     1     -16.234   3.195  28.176  0.00  0.00    +0.000 C 
ATOM     15  C18 UNL     1     -17.256   3.186  27.017  0.00  0.00    +0.000 C 
ATOM     16  C19 UNL     1     -16.565   2.243  29.396  0.00  0.00    +0.000 C 
ATOM     17  C20 UNL     1     -17.690   1.235  29.162  0.00  0.00    +0.000 C 
ATOM     18  C21 UNL     1     -17.651   0.110  30.193  0.00  0.00    +0.000 C 
ATOM     19  C22 UNL     1     -17.378   0.510  31.675  0.00  0.00    +0.000 C 
ATOM     20  C23 UNL     1     -16.023  -0.162  32.047  0.00  0.00    +0.000 C 
ENDROOT
BRANCH   1  21
ATOM     21  C4  UNL     1     -19.755  -0.672  32.098  0.00  0.00    +0.000 C 
ATOM     22  O3  UNL     1     -19.715  -1.901  31.942  0.00  0.00    +0.000 OA
BRANCH  21  23
ATOM     23  C3  UNL     1     -21.028   0.111  31.764  0.00  0.00    +0.000 C 
BRANCH  23  24
ATOM     24  O2  UNL     1     -21.118   0.360  30.352  0.00  0.00    +0.000 OA
BRANCH  24  26
ATOM     25  C1  UNL     1     -21.069  -1.270  28.661  0.00  0.00    +0.000 C 
ATOM     26  C2  UNL     1     -21.893  -0.521  29.662  0.00  0.00    +0.000 C 
ATOM     27  O1  UNL     1     -23.089  -0.706  29.854  0.00  0.00    +0.000 OA
ENDBRANCH  24  26
ENDBRANCH  23  24
ENDBRANCH  21  23
ENDBRANCH   1  21
BRANCH   1  28
ATOM     28  O4  UNL     1     -17.970  -0.812  33.692  0.00  0.00    +0.000 OA
ATOM     29  H6  UNL     1     -18.623  -0.896  34.412  0.00  0.00    +0.000 HD
ENDBRANCH   1  28
BRANCH  17  30
ATOM     30  O6  UNL     1     -18.959   1.872  29.180  0.00  0.00    +0.000 OA
ATOM     31  H25 UNL     1     -18.901   2.569  29.865  0.00  0.00    +0.000 HD
ENDBRANCH  17  30
TORSDOF 6
ENDMDL
MODEL 4
REMARK VINA RESULT:    -6.659      3.376      7.177
REMARK INTER + INTRA:          -9.373
REMARK INTER:                  -8.875
REMARK INTRA:                  -0.498
REMARK UNBOUND:                -0.767
REMARK  Name = C:\Users\sofiya chavarekar\OneDrive\Assignment- Module 1\PROJECT(AI-based drug target identification for SDH-related rare disorders)\Data\Ligands\PDB\Ligand_0102.pdb
REMARK  9 active torsions:
REMARK  status: ('A' for Active; 'I' for Inactive)
REMARK    1  A    between atoms: C1_1  and  C2_2
REMARK    2  A    between atoms: C2_2  and  O2_4
REMARK    3  A    between atoms: O2_4  and  C3_5
REMARK    4  A    between atoms: C3_5  and  C4_6
REMARK    5  A    between atoms: C4_6  and  C5_8
REMARK    6  A    between atoms: C5_8  and  O4_9
REMARK    7  A    between atoms: C17_22  and  C18_23
REMARK    8  A    between atoms: C20_25  and  O6_26
REMARK    9  A    between atoms: C22_28  and  C23_29
REMARK                            x       y       z     vdW  Elec       q    Type
REMARK                         _______ _______ _______ _____ _____    ______ ____
ROOT
ATOM      1  C5  UNL     1     -15.970   0.840  28.774  0.00  0.00    +0.000 C 
ATOM      2  C6  UNL     1     -15.938   2.242  28.158  0.00  0.00    +0.000 C 
ATOM      3  C7  UNL     1     -16.880   2.161  26.981  0.00  0.00    +0.000 C 
ATOM      4  C8  UNL     1     -16.569   0.793  26.364  0.00  0.00    +0.000 C 
ATOM      5  C9  UNL     1     -17.505   0.333  25.212  0.00  0.00    +0.000 C 
ATOM      6  C10 UNL     1     -18.242   1.513  24.533  0.00  0.00    +0.000 C 
ATOM      7  C11 UNL     1     -19.488   1.154  23.747  0.00  0.00    +0.000 C 
ATOM      8  C12 UNL     1     -19.446  -0.276  23.315  0.00  0.00    +0.000 C 
ATOM      9  C13 UNL     1     -19.368  -0.596  22.014  0.00  0.00    +0.000 C 
ATOM     10  C14 UNL     1     -19.289  -2.003  21.585  0.00  0.00    +0.000 C 
ATOM     11  O5  UNL     1     -19.362  -2.313  20.403  0.00  0.00    +0.000 OA
ATOM     12  C15 UNL     1     -19.098  -3.024  22.633  0.00  0.00    +0.000 C 
ATOM     13  C16 UNL     1     -19.170  -2.696  23.921  0.00  0.00    +0.000 C 
ATOM     14  C17 UNL     1     -19.459  -1.290  24.450  0.00  0.00    +0.000 C 
ATOM     15  C18 UNL     1     -20.902  -1.381  24.996  0.00  0.00    +0.000 C 
ATOM     16  C19 UNL     1     -18.340  -0.942  25.512  0.00  0.00    +0.000 C 
ATOM     17  C20 UNL     1     -18.773  -1.015  26.977  0.00  0.00    +0.000 C 
ATOM     18  C21 UNL     1     -17.566  -1.089  27.910  0.00  0.00    +0.000 C 
ATOM     19  C22 UNL     1     -16.359  -0.155  27.590  0.00  0.00    +0.000 C 
ATOM     20  C23 UNL     1     -15.171  -1.105  27.257  0.00  0.00    +0.000 C 
ENDROOT
BRANCH   1  21
ATOM     21  C4  UNL     1     -16.831   0.772  30.069  0.00  0.00    +0.000 C 
ATOM     22  O3  UNL     1     -17.848   1.473  30.169  0.00  0.00    +0.000 OA
BRANCH  21  23
ATOM     23  C3  UNL     1     -16.448  -0.204  31.187  0.00  0.00    +0.000 C 
BRANCH  23  24
ATOM     24  O2  UNL     1     -17.461  -1.208  31.357  0.00  0.00    +0.000 OA
BRANCH  24  26
ATOM     25  C1  UNL     1     -19.680  -1.205  32.130  0.00  0.00    +0.000 C 
ATOM     26  C2  UNL     1     -18.229  -1.065  32.473  0.00  0.00    +0.000 C 
ATOM     27  O1  UNL     1     -17.798  -0.884  33.605  0.00  0.00    +0.000 OA
ENDBRANCH  24  26
ENDBRANCH  23  24
ENDBRANCH  21  23
ENDBRANCH   1  21
BRANCH   1  28
ATOM     28  O4  UNL     1     -14.610   0.592  29.187  0.00  0.00    +0.000 OA
ATOM     29  H6  UNL     1     -14.398   1.214  29.908  0.00  0.00    +0.000 HD
ENDBRANCH   1  28
BRANCH  17  30
ATOM     30  O6  UNL     1     -19.591   0.092  27.324  0.00  0.00    +0.000 OA
ATOM     31  H25 UNL     1     -19.130   0.550  28.056  0.00  0.00    +0.000 HD
ENDBRANCH  17  30
TORSDOF 6
ENDMDL
MODEL 5
REMARK VINA RESULT:    -6.613      3.459      5.454
REMARK INTER + INTRA:          -9.313
REMARK INTER:                  -8.571
REMARK INTRA:                  -0.741
REMARK UNBOUND:                -0.767
REMARK  Name = C:\Users\sofiya chavarekar\OneDrive\Assignment- Module 1\PROJECT(AI-based drug target identification for SDH-related rare disorders)\Data\Ligands\PDB\Ligand_0102.pdb
REMARK  9 active torsions:
REMARK  status: ('A' for Active; 'I' for Inactive)
REMARK    1  A    between atoms: C1_1  and  C2_2
REMARK    2  A    between atoms: C2_2  and  O2_4
REMARK    3  A    between atoms: O2_4  and  C3_5
REMARK    4  A    between atoms: C3_5  and  C4_6
REMARK    5  A    between atoms: C4_6  and  C5_8
REMARK    6  A    between atoms: C5_8  and  O4_9
REMARK    7  A    between atoms: C17_22  and  C18_23
REMARK    8  A    between atoms: C20_25  and  O6_26
REMARK    9  A    between atoms: C22_28  and  C23_29
REMARK                            x       y       z     vdW  Elec       q    Type
REMARK                         _______ _______ _______ _____ _____    ______ ____
ROOT
ATOM      1  C5  UNL     1     -14.672   4.259  28.132  0.00  0.00    +0.000 C 
ATOM      2  C6  UNL     1     -13.774   3.019  28.105  0.00  0.00    +0.000 C 
ATOM      3  C7  UNL     1     -14.734   1.853  28.099  0.00  0.00    +0.000 C 
ATOM      4  C8  UNL     1     -15.820   2.276  29.094  0.00  0.00    +0.000 C 
ATOM      5  C9  UNL     1     -17.062   1.346  29.188  0.00  0.00    +0.000 C 
ATOM      6  C10 UNL     1     -16.776  -0.087  28.678  0.00  0.00    +0.000 C 
ATOM      7  C11 UNL     1     -17.989  -0.911  28.295  0.00  0.00    +0.000 C 
ATOM      8  C12 UNL     1     -19.209  -0.410  28.996  0.00  0.00    +0.000 C 
ATOM      9  C13 UNL     1     -19.837  -1.171  29.906  0.00  0.00    +0.000 C 
ATOM     10  C14 UNL     1     -21.020  -0.668  30.627  0.00  0.00    +0.000 C 
ATOM     11  O5  UNL     1     -21.683  -1.400  31.349  0.00  0.00    +0.000 OA
ATOM     12  C15 UNL     1     -21.362   0.757  30.461  0.00  0.00    +0.000 C 
ATOM     13  C16 UNL     1     -20.729   1.507  29.561  0.00  0.00    +0.000 C 
ATOM     14  C17 UNL     1     -19.630   1.004  28.622  0.00  0.00    +0.000 C 
ATOM     15  C18 UNL     1     -20.311   0.952  27.236  0.00  0.00    +0.000 C 
ATOM     16  C19 UNL     1     -18.404   1.995  28.752  0.00  0.00    +0.000 C 
ATOM     17  C20 UNL     1     -18.220   2.975  27.592  0.00  0.00    +0.000 C 
ATOM     18  C21 UNL     1     -17.315   4.139  27.988  0.00  0.00    +0.000 C 
ATOM     19  C22 UNL     1     -16.038   3.801  28.816  0.00  0.00    +0.000 C 
ATOM     20  C23 UNL     1     -16.230   4.509  30.190  0.00  0.00    +0.000 C 
ENDROOT
BRANCH   1  21
ATOM     21  C4  UNL     1     -14.774   4.958  26.745  0.00  0.00    +0.000 C 
ATOM     22  O3  UNL     1     -15.037   4.287  25.737  0.00  0.00    +0.000 OA
BRANCH  21  23
ATOM     23  C3  UNL     1     -14.608   6.478  26.645  0.00  0.00    +0.000 C 
BRANCH  23  24
ATOM     24  O2  UNL     1     -13.236   6.855  26.832  0.00  0.00    +0.000 OA
BRANCH  24  26
ATOM     25  C1  UNL     1     -11.240   5.835  26.125  0.00  0.00    +0.000 C 
ATOM     26  C2  UNL     1     -12.434   6.658  25.749  0.00  0.00    +0.000 C 
ATOM     27  O1  UNL     1     -12.668   7.063  24.617  0.00  0.00    +0.000 OA
ENDBRANCH  24  26
ENDBRANCH  23  24
ENDBRANCH  21  23
ENDBRANCH   1  21
BRANCH   1  28
ATOM     28  O4  UNL     1     -13.986   5.188  28.997  0.00  0.00    +0.000 OA
ATOM     29  H6  UNL     1     -13.103   4.820  29.190  0.00  0.00    +0.000 HD
ENDBRANCH   1  28
BRANCH  17  30
ATOM     30  O6  UNL     1     -17.701   2.319  26.446  0.00  0.00    +0.000 OA
ATOM     31  H25 UNL     1     -16.844   1.934  26.721  0.00  0.00    +0.000 HD
ENDBRANCH  17  30
TORSDOF 6
ENDMDL
MODEL 6
REMARK VINA RESULT:    -6.507      4.219      7.551
REMARK INTER + INTRA:          -9.177
REMARK INTER:                  -8.834
REMARK INTRA:                  -0.343
REMARK UNBOUND:                -0.767
REMARK  Name = C:\Users\sofiya chavarekar\OneDrive\Assignment- Module 1\PROJECT(AI-based drug target identification for SDH-related rare disorders)\Data\Ligands\PDB\Ligand_0102.pdb
REMARK  9 active torsions:
REMARK  status: ('A' for Active; 'I' for Inactive)
REMARK    1  A    between atoms: C1_1  and  C2_2
REMARK    2  A    between atoms: C2_2  and  O2_4
REMARK    3  A    between atoms: O2_4  and  C3_5
REMARK    4  A    between atoms: C3_5  and  C4_6
REMARK    5  A    between atoms: C4_6  and  C5_8
REMARK    6  A    between atoms: C5_8  and  O4_9
REMARK    7  A    between atoms: C17_22  and  C18_23
REMARK    8  A    between atoms: C20_25  and  O6_26
REMARK    9  A    between atoms: C22_28  and  C23_29
REMARK                            x       y       z     vdW  Elec       q    Type
REMARK                         _______ _______ _______ _____ _____    ______ ____
ROOT
ATOM      1  C5  UNL     1     -17.031  -0.008  27.601  0.00  0.00    +0.000 C 
ATOM      2  C6  UNL     1     -17.985  -0.910  28.389  0.00  0.00    +0.000 C 
ATOM      3  C7  UNL     1     -18.878  -1.529  27.340  0.00  0.00    +0.000 C 
ATOM      4  C8  UNL     1     -19.166  -0.368  26.382  0.00  0.00    +0.000 C 
ATOM      5  C9  UNL     1     -19.937  -0.729  25.082  0.00  0.00    +0.000 C 
ATOM      6  C10 UNL     1     -20.731  -2.051  25.204  0.00  0.00    +0.000 C 
ATOM      7  C11 UNL     1     -21.119  -2.718  23.899  0.00  0.00    +0.000 C 
ATOM      8  C12 UNL     1     -21.161  -1.719  22.789  0.00  0.00    +0.000 C 
ATOM      9  C13 UNL     1     -22.319  -1.417  22.182  0.00  0.00    +0.000 C 
ATOM     10  C14 UNL     1     -22.372  -0.406  21.112  0.00  0.00    +0.000 C 
ATOM     11  O5  UNL     1     -23.390  -0.227  20.456  0.00  0.00    +0.000 OA
ATOM     12  C15 UNL     1     -21.158   0.397  20.875  0.00  0.00    +0.000 C 
ATOM     13  C16 UNL     1     -20.014   0.096  21.486  0.00  0.00    +0.000 C 
ATOM     14  C17 UNL     1     -19.823  -1.073  22.455  0.00  0.00    +0.000 C 
ATOM     15  C18 UNL     1     -18.984  -2.095  21.654  0.00  0.00    +0.000 C 
ATOM     16  C19 UNL     1     -19.146  -0.500  23.764  0.00  0.00    +0.000 C 
ATOM     17  C20 UNL     1     -17.656  -0.804  23.926  0.00  0.00    +0.000 C 
ATOM     18  C21 UNL     1     -17.010   0.121  24.955  0.00  0.00    +0.000 C 
ATOM     19  C22 UNL     1     -17.806   0.396  26.266  0.00  0.00    +0.000 C 
ATOM     20  C23 UNL     1     -18.120   1.921  26.253  0.00  0.00    +0.000 C 
ENDROOT
BRANCH   1  21
ATOM     21  C4  UNL     1     -15.614  -0.629  27.436  0.00  0.00    +0.000 C 
ATOM     22  O3  UNL     1     -15.463  -1.637  26.731  0.00  0.00    +0.000 OA
BRANCH  21  23
ATOM     23  C3  UNL     1     -14.407   0.042  28.099  0.00  0.00    +0.000 C 
BRANCH  23  24
ATOM     24  O2  UNL     1     -14.169  -0.509  29.404  0.00  0.00    +0.000 OA
BRANCH  24  26
ATOM     25  C1  UNL     1     -12.061  -0.868  28.430  0.00  0.00    +0.000 C 
ATOM     26  C2  UNL     1     -12.862  -0.761  29.691  0.00  0.00    +0.000 C 
ATOM     27  O1  UNL     1     -12.394  -0.852  30.819  0.00  0.00    +0.000 OA
ENDBRANCH  24  26
ENDBRANCH  23  24
ENDBRANCH  21  23
ENDBRANCH   1  21
BRANCH   1  28
ATOM     28  O4  UNL     1     -16.861   1.158  28.433  0.00  0.00    +0.000 OA
ATOM     29  H6  UNL     1     -17.239   0.957  29.310  0.00  0.00    +0.000 HD
ENDBRANCH   1  28
BRANCH  17  30
ATOM     30  O6  UNL     1     -17.449  -2.161  24.289  0.00  0.00    +0.000 OA
ATOM     31  H25 UNL     1     -16.716  -2.482  23.724  0.00  0.00    +0.000 HD
ENDBRANCH  17  30
TORSDOF 6
ENDMDL
MODEL 7
REMARK VINA RESULT:    -6.430      3.233      6.035
REMARK INTER + INTRA:          -9.076
REMARK INTER:                  -8.658
REMARK INTRA:                  -0.418
REMARK UNBOUND:                -0.767
REMARK  Name = C:\Users\sofiya chavarekar\OneDrive\Assignment- Module 1\PROJECT(AI-based drug target identification for SDH-related rare disorders)\Data\Ligands\PDB\Ligand_0102.pdb
REMARK  9 active torsions:
REMARK  status: ('A' for Active; 'I' for Inactive)
REMARK    1  A    between atoms: C1_1  and  C2_2
REMARK    2  A    between atoms: C2_2  and  O2_4
REMARK    3  A    between atoms: O2_4  and  C3_5
REMARK    4  A    between atoms: C3_5  and  C4_6
REMARK    5  A    between atoms: C4_6  and  C5_8
REMARK    6  A    between atoms: C5_8  and  O4_9
REMARK    7  A    between atoms: C17_22  and  C18_23
REMARK    8  A    between atoms: C20_25  and  O6_26
REMARK    9  A    between atoms: C22_28  and  C23_29
REMARK                            x       y       z     vdW  Elec       q    Type
REMARK                         _______ _______ _______ _____ _____    ______ ____
ROOT
ATOM      1  C5  UNL     1     -16.528  -0.333  28.387  0.00  0.00    +0.000 C 
ATOM      2  C6  UNL     1     -15.067  -0.441  27.942  0.00  0.00    +0.000 C 
ATOM      3  C7  UNL     1     -14.578   0.987  27.888  0.00  0.00    +0.000 C 
ATOM      4  C8  UNL     1     -15.756   1.747  27.268  0.00  0.00    +0.000 C 
ATOM      5  C9  UNL     1     -15.628   3.296  27.231  0.00  0.00    +0.000 C 
ATOM      6  C10 UNL     1     -14.160   3.777  27.330  0.00  0.00    +0.000 C 
ATOM      7  C11 UNL     1     -13.961   5.216  27.766  0.00  0.00    +0.000 C 
ATOM      8  C12 UNL     1     -15.178   6.030  27.471  0.00  0.00    +0.000 C 
ATOM      9  C13 UNL     1     -15.138   7.021  26.567  0.00  0.00    +0.000 C 
ATOM     10  C14 UNL     1     -16.344   7.802  26.247  0.00  0.00    +0.000 C 
ATOM     11  O5  UNL     1     -16.287   8.796  25.535  0.00  0.00    +0.000 OA
ATOM     12  C15 UNL     1     -17.627   7.330  26.799  0.00  0.00    +0.000 C 
ATOM     13  C16 UNL     1     -17.660   6.341  27.691  0.00  0.00    +0.000 C 
ATOM     14  C17 UNL     1     -16.428   5.616  28.236  0.00  0.00    +0.000 C 
ATOM     15  C18 UNL     1     -16.296   6.133  29.686  0.00  0.00    +0.000 C 
ATOM     16  C19 UNL     1     -16.682   4.063  28.077  0.00  0.00    +0.000 C 
ATOM     17  C20 UNL     1     -17.042   3.316  29.362  0.00  0.00    +0.000 C 
ATOM     18  C21 UNL     1     -17.674   1.960  29.057  0.00  0.00    +0.000 C 
ATOM     19  C22 UNL     1     -17.026   1.110  27.923  0.00  0.00    +0.000 C 
ATOM     20  C23 UNL     1     -18.116   0.986  26.818  0.00  0.00    +0.000 C 
ENDROOT
BRANCH   1  21
ATOM     21  C4  UNL     1     -16.729  -0.703  29.885  0.00  0.00    +0.000 C 
ATOM     22  O3  UNL     1     -15.850  -0.421  30.712  0.00  0.00    +0.000 OA
BRANCH  21  23
ATOM     23  C3  UNL     1     -18.038  -1.359  30.338  0.00  0.00    +0.000 C 
BRANCH  23  24
ATOM     24  O2  UNL     1     -18.067  -1.507  31.766  0.00  0.00    +0.000 OA
BRANCH  24  26
ATOM     25  C1  UNL     1     -20.409  -1.364  31.634  0.00  0.00    +0.000 C 
ATOM     26  C2  UNL     1     -19.165  -0.980  32.375  0.00  0.00    +0.000 C 
ATOM     27  O1  UNL     1     -19.148  -0.317  33.404  0.00  0.00    +0.000 OA
ENDBRANCH  24  26
ENDBRANCH  23  24
ENDBRANCH  21  23
ENDBRANCH   1  21
BRANCH   1  28
ATOM     28  O4  UNL     1     -17.217  -1.349  27.629  0.00  0.00    +0.000 OA
ATOM     29  H6  UNL     1     -16.563  -1.786  27.052  0.00  0.00    +0.000 HD
ENDBRANCH   1  28
BRANCH  17  30
ATOM     30  O6  UNL     1     -15.904   3.150  30.193  0.00  0.00    +0.000 OA
ATOM     31  H25 UNL     1     -16.137   3.553  31.054  0.00  0.00    +0.000 HD
ENDBRANCH  17  30
TORSDOF 6
ENDMDL
MODEL 8
REMARK VINA RESULT:    -6.317      3.607      5.320
REMARK INTER + INTRA:          -8.930
REMARK INTER:                  -8.561
REMARK INTRA:                  -0.369
REMARK UNBOUND:                -0.767
REMARK  Name = C:\Users\sofiya chavarekar\OneDrive\Assignment- Module 1\PROJECT(AI-based drug target identification for SDH-related rare disorders)\Data\Ligands\PDB\Ligand_0102.pdb
REMARK  9 active torsions:
REMARK  status: ('A' for Active; 'I' for Inactive)
REMARK    1  A    between atoms: C1_1  and  C2_2
REMARK    2  A    between atoms: C2_2  and  O2_4
REMARK    3  A    between atoms: O2_4  and  C3_5
REMARK    4  A    between atoms: C3_5  and  C4_6
REMARK    5  A    between atoms: C4_6  and  C5_8
REMARK    6  A    between atoms: C5_8  and  O4_9
REMARK    7  A    between atoms: C17_22  and  C18_23
REMARK    8  A    between atoms: C20_25  and  O6_26
REMARK    9  A    between atoms: C22_28  and  C23_29
REMARK                            x       y       z     vdW  Elec       q    Type
REMARK                         _______ _______ _______ _____ _____    ______ ____
ROOT
ATOM      1  C5  UNL     1     -16.789   6.008  28.171  0.00  0.00    +0.000 C 
ATOM      2  C6  UNL     1     -17.026   6.692  29.520  0.00  0.00    +0.000 C 
ATOM      3  C7  UNL     1     -17.142   5.555  30.508  0.00  0.00    +0.000 C 
ATOM      4  C8  UNL     1     -17.977   4.512  29.758  0.00  0.00    +0.000 C 
ATOM      5  C9  UNL     1     -18.134   3.132  30.457  0.00  0.00    +0.000 C 
ATOM      6  C10 UNL     1     -17.886   3.201  31.982  0.00  0.00    +0.000 C 
ATOM      7  C11 UNL     1     -17.557   1.887  32.663  0.00  0.00    +0.000 C 
ATOM      8  C12 UNL     1     -18.081   0.736  31.868  0.00  0.00    +0.000 C 
ATOM      9  C13 UNL     1     -19.056  -0.046  32.356  0.00  0.00    +0.000 C 
ATOM     10  C14 UNL     1     -19.602  -1.160  31.561  0.00  0.00    +0.000 C 
ATOM     11  O5  UNL     1     -20.385  -1.965  32.047  0.00  0.00    +0.000 OA
ATOM     12  C15 UNL     1     -19.183  -1.257  30.150  0.00  0.00    +0.000 C 
ATOM     13  C16 UNL     1     -18.219  -0.473  29.672  0.00  0.00    +0.000 C 
ATOM     14  C17 UNL     1     -17.454   0.569  30.491  0.00  0.00    +0.000 C 
ATOM     15  C18 UNL     1     -16.051  -0.052  30.675  0.00  0.00    +0.000 C 
ATOM     16  C19 UNL     1     -17.506   1.933  29.693  0.00  0.00    +0.000 C 
ATOM     17  C20 UNL     1     -16.219   2.324  28.966  0.00  0.00    +0.000 C 
ATOM     18  C21 UNL     1     -16.482   3.390  27.905  0.00  0.00    +0.000 C 
ATOM     19  C22 UNL     1     -17.441   4.557  28.289  0.00  0.00    +0.000 C 
ATOM     20  C23 UNL     1     -18.665   4.425  27.335  0.00  0.00    +0.000 C 
ENDROOT
BRANCH   1  21
ATOM     21  C4  UNL     1     -15.303   6.081  27.712  0.00  0.00    +0.000 C 
ATOM     22  O3  UNL     1     -14.415   5.592  28.425  0.00  0.00    +0.000 OA
BRANCH  21  23
ATOM     23  C3  UNL     1     -14.954   6.704  26.357  0.00  0.00    +0.000 C 
BRANCH  23  24
ATOM     24  O2  UNL     1     -14.015   5.884  25.644  0.00  0.00    +0.000 OA
BRANCH  24  26
ATOM     25  C1  UNL     1     -11.742   6.026  26.224  0.00  0.00    +0.000 C 
ATOM     26  C2  UNL     1     -12.843   6.499  25.325  0.00  0.00    +0.000 C 
ATOM     27  O1  UNL     1     -12.695   7.298  24.409  0.00  0.00    +0.000 OA
ENDBRANCH  24  26
ENDBRANCH  23  24
ENDBRANCH  21  23
ENDBRANCH   1  21
BRANCH   1  28
ATOM     28  O4  UNL     1     -17.537   6.799  27.224  0.00  0.00    +0.000 OA
ATOM     29  H6  UNL     1     -18.268   7.229  27.706  0.00  0.00    +0.000 HD
ENDBRANCH   1  28
BRANCH  17  30
ATOM     30  O6  UNL     1     -15.233   2.778  29.882  0.00  0.00    +0.000 OA
ATOM     31  H25 UNL     1     -15.645   2.728  30.768  0.00  0.00    +0.000 HD
ENDBRANCH  17  30
TORSDOF 6
ENDMDL
MODEL 9
REMARK VINA RESULT:    -6.204      2.782      6.920
REMARK INTER + INTRA:          -8.785
REMARK INTER:                  -7.761
REMARK INTRA:                  -1.023
REMARK UNBOUND:                -0.767
REMARK  Name = C:\Users\sofiya chavarekar\OneDrive\Assignment- Module 1\PROJECT(AI-based drug target identification for SDH-related rare disorders)\Data\Ligands\PDB\Ligand_0102.pdb
REMARK  9 active torsions:
REMARK  status: ('A' for Active; 'I' for Inactive)
REMARK    1  A    between atoms: C1_1  and  C2_2
REMARK    2  A    between atoms: C2_2  and  O2_4
REMARK    3  A    between atoms: O2_4  and  C3_5
REMARK    4  A    between atoms: C3_5  and  C4_6
REMARK    5  A    between atoms: C4_6  and  C5_8
REMARK    6  A    between atoms: C5_8  and  O4_9
REMARK    7  A    between atoms: C17_22  and  C18_23
REMARK    8  A    between atoms: C20_25  and  O6_26
REMARK    9  A    between atoms: C22_28  and  C23_29
REMARK                            x       y       z     vdW  Elec       q    Type
REMARK                         _______ _______ _______ _____ _____    ______ ____
ROOT
ATOM      1  C5  UNL     1     -20.731  -0.484  31.246  0.00  0.00    +0.000 C 
ATOM      2  C6  UNL     1     -19.980  -1.817  31.192  0.00  0.00    +0.000 C 
ATOM      3  C7  UNL     1     -19.164  -1.744  29.923  0.00  0.00    +0.000 C 
ATOM      4  C8  UNL     1     -20.122  -1.097  28.917  0.00  0.00    +0.000 C 
ATOM      5  C9  UNL     1     -19.513  -0.727  27.535  0.00  0.00    +0.000 C 
ATOM      6  C10 UNL     1     -18.228  -1.525  27.213  0.00  0.00    +0.000 C 
ATOM      7  C11 UNL     1     -17.323  -0.931  26.152  0.00  0.00    +0.000 C 
ATOM      8  C12 UNL     1     -18.096  -0.027  25.247  0.00  0.00    +0.000 C 
ATOM      9  C13 UNL     1     -18.264  -0.336  23.951  0.00  0.00    +0.000 C 
ATOM     10  C14 UNL     1     -19.055   0.533  23.063  0.00  0.00    +0.000 C 
ATOM     11  O5  UNL     1     -19.095   0.340  21.855  0.00  0.00    +0.000 OA
ATOM     12  C15 UNL     1     -19.815   1.632  23.687  0.00  0.00    +0.000 C 
ATOM     13  C16 UNL     1     -19.648   1.927  24.975  0.00  0.00    +0.000 C 
ATOM     14  C17 UNL     1     -18.684   1.205  25.919  0.00  0.00    +0.000 C 
ATOM     15  C18 UNL     1     -17.541   2.222  26.142  0.00  0.00    +0.000 C 
ATOM     16  C19 UNL     1     -19.501   0.792  27.209  0.00  0.00    +0.000 C 
ATOM     17  C20 UNL     1     -19.252   1.647  28.452  0.00  0.00    +0.000 C 
ATOM     18  C21 UNL     1     -20.361   1.461  29.485  0.00  0.00    +0.000 C 
ATOM     19  C22 UNL     1     -20.868   0.008  29.734  0.00  0.00    +0.000 C 
ATOM     20  C23 UNL     1     -22.359   0.002  29.287  0.00  0.00    +0.000 C 
ENDROOT
BRANCH   1  21
ATOM     21  C4  UNL     1     -20.108   0.517  32.262  0.00  0.00    +0.000 C 
ATOM     22  O3  UNL     1     -20.784   1.465  32.685  0.00  0.00    +0.000 OA
BRANCH  21  23
ATOM     23  C3  UNL     1     -18.682   0.291  32.776  0.00  0.00    +0.000 C 
BRANCH  23  24
ATOM     24  O2  UNL     1     -17.716   0.805  31.847  0.00  0.00    +0.000 OA
BRANCH  24  26
ATOM     25  C1  UNL     1     -16.130  -0.294  33.188  0.00  0.00    +0.000 C 
ATOM     26  C2  UNL     1     -16.538   0.124  31.809  0.00  0.00    +0.000 C 
ATOM     27  O1  UNL     1     -15.913  -0.144  30.790  0.00  0.00    +0.000 OA
ENDBRANCH  24  26
ENDBRANCH  23  24
ENDBRANCH  21  23
ENDBRANCH   1  21
BRANCH   1  28
ATOM     28  O4  UNL     1     -22.034  -0.819  31.765  0.00  0.00    +0.000 OA
ATOM     29  H6  UNL     1     -22.479   0.013  32.015  0.00  0.00    +0.000 HD
ENDBRANCH   1  28
BRANCH  17  30
ATOM     30  O6  UNL     1     -17.990   1.350  29.031  0.00  0.00    +0.000 OA
ATOM     31  H25 UNL     1     -17.324   1.543  28.339  0.00  0.00    +0.000 HD
ENDBRANCH  17  30
TORSDOF 6
ENDMDL
