MODEL 1
REMARK VINA RESULT:    -4.809      0.000      0.000
REMARK INTER + INTRA:          -5.630
REMARK INTER:                  -5.372
REMARK INTRA:                  -0.258
REMARK UNBOUND:                -0.258
REMARK  Name = C:\Users\sofiya chavarekar\OneDrive\Assignment- Module 1\PROJECT(AI-based drug target identification for SDH-related rare disorders)\Data\Ligands\PDB\Ligand_0011.pdb
REMARK  4 active torsions:
REMARK  status: ('A' for Active; 'I' for Inactive)
REMARK    1  A    between atoms: C_1  and  C_2
REMARK    2  A    between atoms: C_2  and  C_3
REMARK    3  A    between atoms: C_2  and  C_4
REMARK    4  A    between atoms: C_4  and  C_5
REMARK                            x       y       z     vdW  Elec       q    Type
REMARK                         _______ _______ _______ _____ _____    ______ ____
ROOT
ATOM      1  C   UNL     1     -11.770   5.587  26.072  0.00  0.00    +0.000 A 
ATOM      2  C   UNL     1     -12.199   6.754  25.425  0.00  0.00    +0.000 A 
ATOM      3  C   UNL     1     -13.550   7.100  25.404  0.00  0.00    +0.000 A 
ATOM      4  C   UNL     1     -14.491   6.273  26.015  0.00  0.00    +0.000 A 
ATOM      5  C   UNL     1     -14.081   5.095  26.635  0.00  0.00    +0.000 A 
ATOM      6  C   UNL     1     -12.728   4.752  26.663  0.00  0.00    +0.000 A 
ENDROOT
BRANCH   1   7
ATOM      7  C   UNL     1     -10.300   5.241  26.153  0.00  0.00    +0.000 C 
BRANCH   7   9
ATOM      8  C   UNL     1      -8.948   4.038  24.355  0.00  0.00    +0.000 C 
ATOM      9  C   UNL     1      -9.942   3.884  25.509  0.00  0.00    +0.000 C 
ATOM     10  C   UNL     1      -9.366   2.936  26.563  0.00  0.00    +0.000 C 
ENDBRANCH   7   9
ENDBRANCH   1   7
TORSDOF 2
ENDMDL
MODEL 2
REMARK VINA RESULT:    -4.590      1.607      4.151
REMARK INTER + INTRA:          -5.385
REMARK INTER:                  -5.114
REMARK INTRA:                  -0.271
REMARK UNBOUND:                -0.258
REMARK  Name = C:\Users\sofiya chavarekar\OneDrive\Assignment- Module 1\PROJECT(AI-based drug target identification for SDH-related rare disorders)\Data\Ligands\PDB\Ligand_0011.pdb
REMARK  4 active torsions:
REMARK  status: ('A' for Active; 'I' for Inactive)
REMARK    1  A    between atoms: C_1  and  C_2
REMARK    2  A    between atoms: C_2  and  C_3
REMARK    3  A    between atoms: C_2  and  C_4
REMARK    4  A    between atoms: C_4  and  C_5
REMARK                            x       y       z     vdW  Elec       q    Type
REMARK                         _______ _______ _______ _____ _____    ______ ____
ROOT
ATOM      1  C   UNL     1     -13.077   5.343  26.558  0.00  0.00    +0.000 A 
ATOM      2  C   UNL     1     -11.742   4.921  26.502  0.00  0.00    +0.000 A 
ATOM      3  C   UNL     1     -10.816   5.597  25.707  0.00  0.00    +0.000 A 
ATOM      4  C   UNL     1     -11.218   6.692  24.945  0.00  0.00    +0.000 A 
ATOM      5  C   UNL     1     -12.549   7.102  24.968  0.00  0.00    +0.000 A 
ATOM      6  C   UNL     1     -13.476   6.431  25.770  0.00  0.00    +0.000 A 
ENDROOT
BRANCH   1   7
ATOM      7  C   UNL     1     -14.070   4.653  27.466  0.00  0.00    +0.000 C 
BRANCH   7   9
ATOM      8  C   UNL     1     -14.617   2.263  28.174  0.00  0.00    +0.000 C 
ATOM      9  C   UNL     1     -14.462   3.234  27.000  0.00  0.00    +0.000 C 
ATOM     10  C   UNL     1     -15.763   3.284  26.196  0.00  0.00    +0.000 C 
ENDBRANCH   7   9
ENDBRANCH   1   7
TORSDOF 2
ENDMDL
MODEL 3
REMARK VINA RESULT:    -4.574      1.607      4.360
REMARK INTER + INTRA:          -5.367
REMARK INTER:                  -5.100
REMARK INTRA:                  -0.267
REMARK UNBOUND:                -0.258
REMARK  Name = C:\Users\sofiya chavarekar\OneDrive\Assignment- Module 1\PROJECT(AI-based drug target identification for SDH-related rare disorders)\Data\Ligands\PDB\Ligand_0011.pdb
REMARK  4 active torsions:
REMARK  status: ('A' for Active; 'I' for Inactive)
REMARK    1  A    between atoms: C_1  and  C_2
REMARK    2  A    between atoms: C_2  and  C_3
REMARK    3  A    between atoms: C_2  and  C_4
REMARK    4  A    between atoms: C_4  and  C_5
REMARK                            x       y       z     vdW  Elec       q    Type
REMARK                         _______ _______ _______ _____ _____    ______ ____
ROOT
ATOM      1  C   UNL     1     -13.115   5.188  26.430  0.00  0.00    +0.000 A 
ATOM      2  C   UNL     1     -13.496   6.319  25.695  0.00  0.00    +0.000 A 
ATOM      3  C   UNL     1     -12.545   7.070  25.003  0.00  0.00    +0.000 A 
ATOM      4  C   UNL     1     -11.200   6.710  25.054  0.00  0.00    +0.000 A 
ATOM      5  C   UNL     1     -10.805   5.606  25.806  0.00  0.00    +0.000 A 
ATOM      6  C   UNL     1     -11.756   4.849  26.493  0.00  0.00    +0.000 A 
ENDROOT
BRANCH   1   7
ATOM      7  C   UNL     1     -14.149   4.334  27.129  0.00  0.00    +0.000 C 
BRANCH   7   9
ATOM      8  C   UNL     1     -16.039   2.984  26.074  0.00  0.00    +0.000 C 
ATOM      9  C   UNL     1     -15.544   4.378  26.470  0.00  0.00    +0.000 C 
ATOM     10  C   UNL     1     -16.553   5.034  27.415  0.00  0.00    +0.000 C 
ENDBRANCH   7   9
ENDBRANCH   1   7
TORSDOF 2
ENDMDL
MODEL 4
REMARK VINA RESULT:    -4.450      2.124      5.526
REMARK INTER + INTRA:          -5.229
REMARK INTER:                  -4.964
REMARK INTRA:                  -0.265
REMARK UNBOUND:                -0.258
REMARK  Name = C:\Users\sofiya chavarekar\OneDrive\Assignment- Module 1\PROJECT(AI-based drug target identification for SDH-related rare disorders)\Data\Ligands\PDB\Ligand_0011.pdb
REMARK  4 active torsions:
REMARK  status: ('A' for Active; 'I' for Inactive)
REMARK    1  A    between atoms: C_1  and  C_2
REMARK    2  A    between atoms: C_2  and  C_3
REMARK    3  A    between atoms: C_2  and  C_4
REMARK    4  A    between atoms: C_4  and  C_5
REMARK                            x       y       z     vdW  Elec       q    Type
REMARK                         _______ _______ _______ _____ _____    ______ ____
ROOT
ATOM      1  C   UNL     1     -14.031   7.046  26.108  0.00  0.00    +0.000 A 
ATOM      2  C   UNL     1     -13.970   5.890  26.897  0.00  0.00    +0.000 A 
ATOM      3  C   UNL     1     -12.822   5.097  26.909  0.00  0.00    +0.000 A 
ATOM      4  C   UNL     1     -11.728   5.442  26.118  0.00  0.00    +0.000 A 
ATOM      5  C   UNL     1     -11.788   6.572  25.306  0.00  0.00    +0.000 A 
ATOM      6  C   UNL     1     -12.934   7.371  25.299  0.00  0.00    +0.000 A 
ENDROOT
BRANCH   1   7
ATOM      7  C   UNL     1     -15.249   7.943  26.140  0.00  0.00    +0.000 C 
BRANCH   7   9
ATOM      8  C   UNL     1     -15.116  10.455  25.715  0.00  0.00    +0.000 C 
ATOM      9  C   UNL     1     -14.983   9.335  26.751  0.00  0.00    +0.000 C 
ATOM     10  C   UNL     1     -15.943   9.593  27.914  0.00  0.00    +0.000 C 
ENDBRANCH   7   9
ENDBRANCH   1   7
TORSDOF 2
ENDMDL
MODEL 5
REMARK VINA RESULT:    -4.408      1.732      4.886
REMARK INTER + INTRA:          -5.182
REMARK INTER:                  -4.914
REMARK INTRA:                  -0.268
REMARK UNBOUND:                -0.258
REMARK  Name = C:\Users\sofiya chavarekar\OneDrive\Assignment- Module 1\PROJECT(AI-based drug target identification for SDH-related rare disorders)\Data\Ligands\PDB\Ligand_0011.pdb
REMARK  4 active torsions:
REMARK  status: ('A' for Active; 'I' for Inactive)
REMARK    1  A    between atoms: C_1  and  C_2
REMARK    2  A    between atoms: C_2  and  C_3
REMARK    3  A    between atoms: C_2  and  C_4
REMARK    4  A    between atoms: C_4  and  C_5
REMARK                            x       y       z     vdW  Elec       q    Type
REMARK                         _______ _______ _______ _____ _____    ______ ____
ROOT
ATOM      1  C   UNL     1     -13.750   5.520  26.137  0.00  0.00    +0.000 A 
ATOM      2  C   UNL     1     -12.545   4.935  26.547  0.00  0.00    +0.000 A 
ATOM      3  C   UNL     1     -11.321   5.469  26.142  0.00  0.00    +0.000 A 
ATOM      4  C   UNL     1     -11.289   6.584  25.306  0.00  0.00    +0.000 A 
ATOM      5  C   UNL     1     -12.481   7.156  24.867  0.00  0.00    +0.000 A 
ATOM      6  C   UNL     1     -13.706   6.627  25.278  0.00  0.00    +0.000 A 
ENDROOT
BRANCH   1   7
ATOM      7  C   UNL     1     -15.078   4.984  26.625  0.00  0.00    +0.000 C 
BRANCH   7   9
ATOM      8  C   UNL     1     -17.128   6.121  27.630  0.00  0.00    +0.000 C 
ATOM      9  C   UNL     1     -15.656   5.752  27.833  0.00  0.00    +0.000 C 
ATOM     10  C   UNL     1     -15.504   4.921  29.109  0.00  0.00    +0.000 C 
ENDBRANCH   7   9
ENDBRANCH   1   7
TORSDOF 2
ENDMDL
MODEL 6
REMARK VINA RESULT:    -4.261      2.127      3.742
REMARK INTER + INTRA:          -5.017
REMARK INTER:                  -4.752
REMARK INTRA:                  -0.266
REMARK UNBOUND:                -0.258
REMARK  Name = C:\Users\sofiya chavarekar\OneDrive\Assignment- Module 1\PROJECT(AI-based drug target identification for SDH-related rare disorders)\Data\Ligands\PDB\Ligand_0011.pdb
REMARK  4 active torsions:
REMARK  status: ('A' for Active; 'I' for Inactive)
REMARK    1  A    between atoms: C_1  and  C_2
REMARK    2  A    between atoms: C_2  and  C_3
REMARK    3  A    between atoms: C_2  and  C_4
REMARK    4  A    between atoms: C_4  and  C_5
REMARK                            x       y       z     vdW  Elec       q    Type
REMARK                         _______ _______ _______ _____ _____    ______ ____
ROOT
ATOM      1  C   UNL     1     -14.647   7.416  26.109  0.00  0.00    +0.000 A 
ATOM      2  C   UNL     1     -14.252   8.759  26.181  0.00  0.00    +0.000 A 
ATOM      3  C   UNL     1     -15.086   9.714  26.763  0.00  0.00    +0.000 A 
ATOM      4  C   UNL     1     -16.332   9.342  27.263  0.00  0.00    +0.000 A 
ATOM      5  C   UNL     1     -16.749   8.016  27.169  0.00  0.00    +0.000 A 
ATOM      6  C   UNL     1     -15.912   7.056  26.594  0.00  0.00    +0.000 A 
ENDROOT
BRANCH   1   7
ATOM      7  C   UNL     1     -13.722   6.365  25.537  0.00  0.00    +0.000 C 
BRANCH   7   9
ATOM      8  C   UNL     1     -13.247   4.239  26.864  0.00  0.00    +0.000 C 
ATOM      9  C   UNL     1     -12.822   5.685  26.591  0.00  0.00    +0.000 C 
ATOM     10  C   UNL     1     -11.361   5.715  26.137  0.00  0.00    +0.000 C 
ENDBRANCH   7   9
ENDBRANCH   1   7
TORSDOF 2
ENDMDL
MODEL 7
REMARK VINA RESULT:    -3.754      1.947      5.149
REMARK INTER + INTRA:          -4.452
REMARK INTER:                  -4.179
REMARK INTRA:                  -0.272
REMARK UNBOUND:                -0.258
REMARK  Name = C:\Users\sofiya chavarekar\OneDrive\Assignment- Module 1\PROJECT(AI-based drug target identification for SDH-related rare disorders)\Data\Ligands\PDB\Ligand_0011.pdb
REMARK  4 active torsions:
REMARK  status: ('A' for Active; 'I' for Inactive)
REMARK    1  A    between atoms: C_1  and  C_2
REMARK    2  A    between atoms: C_2  and  C_3
REMARK    3  A    between atoms: C_2  and  C_4
REMARK    4  A    between atoms: C_4  and  C_5
REMARK                            x       y       z     vdW  Elec       q    Type
REMARK                         _______ _______ _______ _____ _____    ______ ____
ROOT
ATOM      1  C   UNL     1     -14.438   6.236  26.398  0.00  0.00    +0.000 A 
ATOM      2  C   UNL     1     -13.809   7.150  25.541  0.00  0.00    +0.000 A 
ATOM      3  C   UNL     1     -12.468   6.990  25.190  0.00  0.00    +0.000 A 
ATOM      4  C   UNL     1     -11.735   5.923  25.707  0.00  0.00    +0.000 A 
ATOM      5  C   UNL     1     -12.340   5.025  26.583  0.00  0.00    +0.000 A 
ATOM      6  C   UNL     1     -13.684   5.181  26.929  0.00  0.00    +0.000 A 
ENDROOT
BRANCH   1   7
ATOM      7  C   UNL     1     -15.907   6.370  26.731  0.00  0.00    +0.000 C 
BRANCH   7   9
ATOM      8  C   UNL     1     -16.989   6.370  29.041  0.00  0.00    +0.000 C 
ATOM      9  C   UNL     1     -16.353   5.518  27.938  0.00  0.00    +0.000 C 
ATOM     10  C   UNL     1     -17.340   4.439  27.487  0.00  0.00    +0.000 C 
ENDBRANCH   7   9
ENDBRANCH   1   7
TORSDOF 2
ENDMDL
MODEL 8
REMARK VINA RESULT:    -3.653     10.275     11.795
REMARK INTER + INTRA:          -4.338
REMARK INTER:                  -4.044
REMARK INTRA:                  -0.295
REMARK UNBOUND:                -0.258
REMARK  Name = C:\Users\sofiya chavarekar\OneDrive\Assignment- Module 1\PROJECT(AI-based drug target identification for SDH-related rare disorders)\Data\Ligands\PDB\Ligand_0011.pdb
REMARK  4 active torsions:
REMARK  status: ('A' for Active; 'I' for Inactive)
REMARK    1  A    between atoms: C_1  and  C_2
REMARK    2  A    between atoms: C_2  and  C_3
REMARK    3  A    between atoms: C_2  and  C_4
REMARK    4  A    between atoms: C_4  and  C_5
REMARK                            x       y       z     vdW  Elec       q    Type
REMARK                         _______ _______ _______ _____ _____    ______ ____
ROOT
ATOM      1  C   UNL     1     -18.818  -2.835  22.461  0.00  0.00    +0.000 A 
ATOM      2  C   UNL     1     -18.952  -4.140  22.954  0.00  0.00    +0.000 A 
ATOM      3  C   UNL     1     -19.656  -5.104  22.233  0.00  0.00    +0.000 A 
ATOM      4  C   UNL     1     -20.251  -4.770  21.018  0.00  0.00    +0.000 A 
ATOM      5  C   UNL     1     -20.152  -3.468  20.532  0.00  0.00    +0.000 A 
ATOM      6  C   UNL     1     -19.441  -2.504  21.250  0.00  0.00    +0.000 A 
ENDROOT
BRANCH   1   7
ATOM      7  C   UNL     1     -18.003  -1.804  23.209  0.00  0.00    +0.000 C 
BRANCH   7   9
ATOM      8  C   UNL     1     -19.717  -0.411  24.486  0.00  0.00    +0.000 C 
ATOM      9  C   UNL     1     -18.700  -0.433  23.341  0.00  0.00    +0.000 C 
ATOM     10  C   UNL     1     -17.661   0.670  23.554  0.00  0.00    +0.000 C 
ENDBRANCH   7   9
ENDBRANCH   1   7
TORSDOF 2
ENDMDL
MODEL 9
REMARK VINA RESULT:    -3.613     10.532     11.915
REMARK INTER + INTRA:          -4.294
REMARK INTER:                  -3.996
REMARK INTRA:                  -0.298
REMARK UNBOUND:                -0.258
REMARK  Name = C:\Users\sofiya chavarekar\OneDrive\Assignment- Module 1\PROJECT(AI-based drug target identification for SDH-related rare disorders)\Data\Ligands\PDB\Ligand_0011.pdb
REMARK  4 active torsions:
REMARK  status: ('A' for Active; 'I' for Inactive)
REMARK    1  A    between atoms: C_1  and  C_2
REMARK    2  A    between atoms: C_2  and  C_3
REMARK    3  A    between atoms: C_2  and  C_4
REMARK    4  A    between atoms: C_4  and  C_5
REMARK                            x       y       z     vdW  Elec       q    Type
REMARK                         _______ _______ _______ _____ _____    ______ ____
ROOT
ATOM      1  C   UNL     1     -19.192  -2.336  21.955  0.00  0.00    +0.000 A 
ATOM      2  C   UNL     1     -18.146  -2.515  22.871  0.00  0.00    +0.000 A 
ATOM      3  C   UNL     1     -17.630  -1.431  23.581  0.00  0.00    +0.000 A 
ATOM      4  C   UNL     1     -18.140  -0.152  23.369  0.00  0.00    +0.000 A 
ATOM      5  C   UNL     1     -19.158   0.044  22.438  0.00  0.00    +0.000 A 
ATOM      6  C   UNL     1     -19.681  -1.042  21.733  0.00  0.00    +0.000 A 
ENDROOT
BRANCH   1   7
ATOM      7  C   UNL     1     -19.798  -3.517  21.230  0.00  0.00    +0.000 C 
BRANCH   7   9
ATOM      8  C   UNL     1     -21.165  -4.730  23.010  0.00  0.00    +0.000 C 
ATOM      9  C   UNL     1     -19.932  -4.783  22.103  0.00  0.00    +0.000 C 
ATOM     10  C   UNL     1     -19.998  -6.030  21.218  0.00  0.00    +0.000 C 
ENDBRANCH   7   9
ENDBRANCH   1   7
TORSDOF 2
ENDMDL
