MODEL 1
REMARK VINA RESULT:    -3.998      0.000      0.000
REMARK INTER + INTRA:          -4.660
REMARK INTER:                  -4.582
REMARK INTRA:                  -0.077
REMARK UNBOUND:                -0.077
REMARK  Name = C:\Users\sofiya chavarekar\OneDrive\Assignment- Module 1\PROJECT(AI-based drug target identification for SDH-related rare disorders)\Data\Ligands\PDB\Ligand_0064.pdb
REMARK  7 active torsions:
REMARK  status: ('A' for Active; 'I' for Inactive)
REMARK    1  A    between atoms: C_1  and  C_2
REMARK    2  A    between atoms: C_2  and  C_3
REMARK    3  A    between atoms: C_3  and  C_4
REMARK    4  A    between atoms: C_3  and  O_5
REMARK    5  A    between atoms: C_3  and  C_6
REMARK    6  A    between atoms: C_6  and  C_7
REMARK    7  A    between atoms: C_6  and  C_8
REMARK                            x       y       z     vdW  Elec       q    Type
REMARK                         _______ _______ _______ _____ _____    ______ ____
ROOT
ATOM      1  C   UNL     1     -12.748   5.645  26.545  0.00  0.00    +0.000 C 
ATOM      2  C   UNL     1     -13.036   4.148  26.752  0.00  0.00    +0.000 C 
ENDROOT
BRANCH   1   3
ATOM      3  C   UNL     1     -11.273   5.921  26.123  0.00  0.00    +0.000 C 
ATOM      4  C   UNL     1     -10.434   4.638  26.012  0.00  0.00    +0.000 C 
ATOM      5  C   UNL     1     -11.138   6.721  24.821  0.00  0.00    +0.000 C 
ENDBRANCH   1   3
BRANCH   1   7
ATOM      6  C   UNL     1     -14.556   7.436  26.088  0.00  0.00    +0.000 C 
ATOM      7  C   UNL     1     -13.795   6.224  25.562  0.00  0.00    +0.000 C 
ENDBRANCH   1   7
BRANCH   1   8
ATOM      8  O   UNL     1     -12.951   6.286  27.815  0.00  0.00    +0.000 OA
ATOM      9  H   UNL     1     -12.091   6.344  28.266  0.00  0.00    +0.000 HD
ENDBRANCH   1   8
TORSDOF 3
ENDMDL
MODEL 2
REMARK VINA RESULT:    -3.886      1.542      2.226
REMARK INTER + INTRA:          -4.531
REMARK INTER:                  -4.440
REMARK INTRA:                  -0.091
REMARK UNBOUND:                -0.077
REMARK  Name = C:\Users\sofiya chavarekar\OneDrive\Assignment- Module 1\PROJECT(AI-based drug target identification for SDH-related rare disorders)\Data\Ligands\PDB\Ligand_0064.pdb
REMARK  7 active torsions:
REMARK  status: ('A' for Active; 'I' for Inactive)
REMARK    1  A    between atoms: C_1  and  C_2
REMARK    2  A    between atoms: C_2  and  C_3
REMARK    3  A    between atoms: C_3  and  C_4
REMARK    4  A    between atoms: C_3  and  O_5
REMARK    5  A    between atoms: C_3  and  C_6
REMARK    6  A    between atoms: C_6  and  C_7
REMARK    7  A    between atoms: C_6  and  C_8
REMARK                            x       y       z     vdW  Elec       q    Type
REMARK                         _______ _______ _______ _____ _____    ______ ____
ROOT
ATOM      1  C   UNL     1     -13.139   6.647  25.893  0.00  0.00    +0.000 C 
ATOM      2  C   UNL     1     -13.698   7.989  26.395  0.00  0.00    +0.000 C 
ENDROOT
BRANCH   1   3
ATOM      3  C   UNL     1     -11.588   6.661  25.738  0.00  0.00    +0.000 C 
ATOM      4  C   UNL     1     -10.944   5.305  26.067  0.00  0.00    +0.000 C 
ATOM      5  C   UNL     1     -11.104   7.122  24.358  0.00  0.00    +0.000 C 
ENDBRANCH   1   3
BRANCH   1   7
ATOM      6  C   UNL     1     -14.767   4.661  26.196  0.00  0.00    +0.000 C 
ATOM      7  C   UNL     1     -13.662   5.514  26.809  0.00  0.00    +0.000 C 
ENDBRANCH   1   7
BRANCH   1   8
ATOM      8  O   UNL     1     -13.692   6.431  24.584  0.00  0.00    +0.000 OA
ATOM      9  H   UNL     1     -14.637   6.226  24.684  0.00  0.00    +0.000 HD
ENDBRANCH   1   8
TORSDOF 3
ENDMDL
MODEL 3
REMARK VINA RESULT:    -3.846      1.551      3.664
REMARK INTER + INTRA:          -4.486
REMARK INTER:                  -4.417
REMARK INTRA:                  -0.069
REMARK UNBOUND:                -0.077
REMARK  Name = C:\Users\sofiya chavarekar\OneDrive\Assignment- Module 1\PROJECT(AI-based drug target identification for SDH-related rare disorders)\Data\Ligands\PDB\Ligand_0064.pdb
REMARK  7 active torsions:
REMARK  status: ('A' for Active; 'I' for Inactive)
REMARK    1  A    between atoms: C_1  and  C_2
REMARK    2  A    between atoms: C_2  and  C_3
REMARK    3  A    between atoms: C_3  and  C_4
REMARK    4  A    between atoms: C_3  and  O_5
REMARK    5  A    between atoms: C_3  and  C_6
REMARK    6  A    between atoms: C_6  and  C_7
REMARK    7  A    between atoms: C_6  and  C_8
REMARK                            x       y       z     vdW  Elec       q    Type
REMARK                         _______ _______ _______ _____ _____    ______ ____
ROOT
ATOM      1  C   UNL     1     -13.832   6.269  26.121  0.00  0.00    +0.000 C 
ATOM      2  C   UNL     1     -14.533   4.900  26.125  0.00  0.00    +0.000 C 
ENDROOT
BRANCH   1   3
ATOM      3  C   UNL     1     -14.678   7.381  26.811  0.00  0.00    +0.000 C 
ATOM      4  C   UNL     1     -14.390   8.784  26.252  0.00  0.00    +0.000 C 
ATOM      5  C   UNL     1     -16.190   7.128  26.770  0.00  0.00    +0.000 C 
ENDBRANCH   1   3
BRANCH   1   7
ATOM      6  C   UNL     1     -11.284   6.143  25.695  0.00  0.00    +0.000 C 
ATOM      7  C   UNL     1     -12.413   6.107  26.719  0.00  0.00    +0.000 C 
ENDBRANCH   1   7
BRANCH   1   8
ATOM      8  O   UNL     1     -13.676   6.651  24.744  0.00  0.00    +0.000 OA
ATOM      9  H   UNL     1     -12.725   6.682  24.543  0.00  0.00    +0.000 HD
ENDBRANCH   1   8
TORSDOF 3
ENDMDL
MODEL 4
REMARK VINA RESULT:    -3.788      1.160      3.213
REMARK INTER + INTRA:          -4.419
REMARK INTER:                  -4.387
REMARK INTRA:                  -0.032
REMARK UNBOUND:                -0.077
REMARK  Name = C:\Users\sofiya chavarekar\OneDrive\Assignment- Module 1\PROJECT(AI-based drug target identification for SDH-related rare disorders)\Data\Ligands\PDB\Ligand_0064.pdb
REMARK  7 active torsions:
REMARK  status: ('A' for Active; 'I' for Inactive)
REMARK    1  A    between atoms: C_1  and  C_2
REMARK    2  A    between atoms: C_2  and  C_3
REMARK    3  A    between atoms: C_3  and  C_4
REMARK    4  A    between atoms: C_3  and  O_5
REMARK    5  A    between atoms: C_3  and  C_6
REMARK    6  A    between atoms: C_6  and  C_7
REMARK    7  A    between atoms: C_6  and  C_8
REMARK                            x       y       z     vdW  Elec       q    Type
REMARK                         _______ _______ _______ _____ _____    ______ ____
ROOT
ATOM      1  C   UNL     1     -13.150   5.526  26.559  0.00  0.00    +0.000 C 
ATOM      2  C   UNL     1     -13.847   6.317  25.438  0.00  0.00    +0.000 C 
ENDROOT
BRANCH   1   3
ATOM      3  C   UNL     1     -13.874   4.185  26.889  0.00  0.00    +0.000 C 
ATOM      4  C   UNL     1     -14.186   4.029  28.386  0.00  0.00    +0.000 C 
ATOM      5  C   UNL     1     -15.159   3.957  26.084  0.00  0.00    +0.000 C 
ENDBRANCH   1   3
BRANCH   1   7
ATOM      6  C   UNL     1     -11.103   6.421  25.257  0.00  0.00    +0.000 C 
ATOM      7  C   UNL     1     -11.656   5.352  26.194  0.00  0.00    +0.000 C 
ENDBRANCH   1   7
BRANCH   1   8
ATOM      8  O   UNL     1     -13.212   6.341  27.741  0.00  0.00    +0.000 OA
ATOM      9  H   UNL     1     -14.081   6.208  28.156  0.00  0.00    +0.000 HD
ENDBRANCH   1   8
TORSDOF 3
ENDMDL
MODEL 5
REMARK VINA RESULT:    -3.460      1.959      3.120
REMARK INTER + INTRA:          -4.043
REMARK INTER:                  -3.982
REMARK INTRA:                  -0.061
REMARK UNBOUND:                -0.077
REMARK  Name = C:\Users\sofiya chavarekar\OneDrive\Assignment- Module 1\PROJECT(AI-based drug target identification for SDH-related rare disorders)\Data\Ligands\PDB\Ligand_0064.pdb
REMARK  7 active torsions:
REMARK  status: ('A' for Active; 'I' for Inactive)
REMARK    1  A    between atoms: C_1  and  C_2
REMARK    2  A    between atoms: C_2  and  C_3
REMARK    3  A    between atoms: C_3  and  C_4
REMARK    4  A    between atoms: C_3  and  O_5
REMARK    5  A    between atoms: C_3  and  C_6
REMARK    6  A    between atoms: C_6  and  C_7
REMARK    7  A    between atoms: C_6  and  C_8
REMARK                            x       y       z     vdW  Elec       q    Type
REMARK                         _______ _______ _______ _____ _____    ______ ____
ROOT
ATOM      1  C   UNL     1     -13.967   6.426  26.005  0.00  0.00    +0.000 C 
ATOM      2  C   UNL     1     -12.615   6.654  26.703  0.00  0.00    +0.000 C 
ENDROOT
BRANCH   1   3
ATOM      3  C   UNL     1     -14.491   4.967  26.171  0.00  0.00    +0.000 C 
ATOM      4  C   UNL     1     -13.500   4.060  26.918  0.00  0.00    +0.000 C 
ATOM      5  C   UNL     1     -15.864   4.872  26.848  0.00  0.00    +0.000 C 
ENDBRANCH   1   3
BRANCH   1   7
ATOM      6  C   UNL     1     -14.431   8.931  26.448  0.00  0.00    +0.000 C 
ATOM      7  C   UNL     1     -14.968   7.504  26.488  0.00  0.00    +0.000 C 
ENDBRANCH   1   7
BRANCH   1   8
ATOM      8  O   UNL     1     -13.750   6.639  24.601  0.00  0.00    +0.000 OA
ATOM      9  H   UNL     1     -14.324   6.029  24.108  0.00  0.00    +0.000 HD
ENDBRANCH   1   8
TORSDOF 3
ENDMDL
MODEL 6
REMARK VINA RESULT:    -3.355      1.686      3.601
REMARK INTER + INTRA:          -3.923
REMARK INTER:                  -3.846
REMARK INTRA:                  -0.077
REMARK UNBOUND:                -0.077
REMARK  Name = C:\Users\sofiya chavarekar\OneDrive\Assignment- Module 1\PROJECT(AI-based drug target identification for SDH-related rare disorders)\Data\Ligands\PDB\Ligand_0064.pdb
REMARK  7 active torsions:
REMARK  status: ('A' for Active; 'I' for Inactive)
REMARK    1  A    between atoms: C_1  and  C_2
REMARK    2  A    between atoms: C_2  and  C_3
REMARK    3  A    between atoms: C_3  and  C_4
REMARK    4  A    between atoms: C_3  and  O_5
REMARK    5  A    between atoms: C_3  and  C_6
REMARK    6  A    between atoms: C_6  and  C_7
REMARK    7  A    between atoms: C_6  and  C_8
REMARK                            x       y       z     vdW  Elec       q    Type
REMARK                         _______ _______ _______ _____ _____    ______ ____
ROOT
ATOM      1  C   UNL     1     -13.892   6.429  26.306  0.00  0.00    +0.000 C 
ATOM      2  C   UNL     1     -12.898   6.829  25.201  0.00  0.00    +0.000 C 
ENDROOT
BRANCH   1   3
ATOM      3  C   UNL     1     -15.078   7.432  26.440  0.00  0.00    +0.000 C 
ATOM      4  C   UNL     1     -15.945   7.166  27.681  0.00  0.00    +0.000 C 
ATOM      5  C   UNL     1     -14.651   8.905  26.433  0.00  0.00    +0.000 C 
ENDBRANCH   1   3
BRANCH   1   7
ATOM      6  C   UNL     1     -13.685   3.946  26.997  0.00  0.00    +0.000 C 
ATOM      7  C   UNL     1     -14.339   4.966  26.071  0.00  0.00    +0.000 C 
ENDBRANCH   1   7
BRANCH   1   8
ATOM      8  O   UNL     1     -13.168   6.463  27.547  0.00  0.00    +0.000 OA
ATOM      9  H   UNL     1     -12.241   6.235  27.363  0.00  0.00    +0.000 HD
ENDBRANCH   1   8
TORSDOF 3
ENDMDL
MODEL 7
REMARK VINA RESULT:    -3.232      1.285      2.006
REMARK INTER + INTRA:          -3.782
REMARK INTER:                  -3.694
REMARK INTRA:                  -0.088
REMARK UNBOUND:                -0.077
REMARK  Name = C:\Users\sofiya chavarekar\OneDrive\Assignment- Module 1\PROJECT(AI-based drug target identification for SDH-related rare disorders)\Data\Ligands\PDB\Ligand_0064.pdb
REMARK  7 active torsions:
REMARK  status: ('A' for Active; 'I' for Inactive)
REMARK    1  A    between atoms: C_1  and  C_2
REMARK    2  A    between atoms: C_2  and  C_3
REMARK    3  A    between atoms: C_3  and  C_4
REMARK    4  A    between atoms: C_3  and  O_5
REMARK    5  A    between atoms: C_3  and  C_6
REMARK    6  A    between atoms: C_6  and  C_7
REMARK    7  A    between atoms: C_6  and  C_8
REMARK                            x       y       z     vdW  Elec       q    Type
REMARK                         _______ _______ _______ _____ _____    ______ ____
ROOT
ATOM      1  C   UNL     1     -14.085   5.680  26.586  0.00  0.00    +0.000 C 
ATOM      2  C   UNL     1     -14.644   4.252  26.459  0.00  0.00    +0.000 C 
ENDROOT
BRANCH   1   3
ATOM      3  C   UNL     1     -12.829   5.916  25.693  0.00  0.00    +0.000 C 
ATOM      4  C   UNL     1     -12.854   7.275  24.975  0.00  0.00    +0.000 C 
ATOM      5  C   UNL     1     -11.498   5.769  26.440  0.00  0.00    +0.000 C 
ENDBRANCH   1   3
BRANCH   1   7
ATOM      6  C   UNL     1     -15.865   7.266  27.588  0.00  0.00    +0.000 C 
ATOM      7  C   UNL     1     -15.230   6.690  26.327  0.00  0.00    +0.000 C 
ENDBRANCH   1   7
BRANCH   1   8
ATOM      8  O   UNL     1     -13.669   5.843  27.952  0.00  0.00    +0.000 OA
ATOM      9  H   UNL     1     -14.239   6.513  28.365  0.00  0.00    +0.000 HD
ENDBRANCH   1   8
TORSDOF 3
ENDMDL
MODEL 8
REMARK VINA RESULT:    -3.163      1.929      3.404
REMARK INTER + INTRA:          -3.703
REMARK INTER:                  -3.619
REMARK INTRA:                  -0.084
REMARK UNBOUND:                -0.077
REMARK  Name = C:\Users\sofiya chavarekar\OneDrive\Assignment- Module 1\PROJECT(AI-based drug target identification for SDH-related rare disorders)\Data\Ligands\PDB\Ligand_0064.pdb
REMARK  7 active torsions:
REMARK  status: ('A' for Active; 'I' for Inactive)
REMARK    1  A    between atoms: C_1  and  C_2
REMARK    2  A    between atoms: C_2  and  C_3
REMARK    3  A    between atoms: C_3  and  C_4
REMARK    4  A    between atoms: C_3  and  O_5
REMARK    5  A    between atoms: C_3  and  C_6
REMARK    6  A    between atoms: C_6  and  C_7
REMARK    7  A    between atoms: C_6  and  C_8
REMARK                            x       y       z     vdW  Elec       q    Type
REMARK                         _______ _______ _______ _____ _____    ______ ____
ROOT
ATOM      1  C   UNL     1     -14.682   5.071  26.582  0.00  0.00    +0.000 C 
ATOM      2  C   UNL     1     -15.921   5.849  27.058  0.00  0.00    +0.000 C 
ENDROOT
BRANCH   1   3
ATOM      3  C   UNL     1     -13.664   5.971  25.817  0.00  0.00    +0.000 C 
ATOM      4  C   UNL     1     -13.935   7.472  26.008  0.00  0.00    +0.000 C 
ATOM      5  C   UNL     1     -12.198   5.680  26.157  0.00  0.00    +0.000 C 
ENDBRANCH   1   3
BRANCH   1   7
ATOM      6  C   UNL     1     -14.086   2.803  27.671  0.00  0.00    +0.000 C 
ATOM      7  C   UNL     1     -14.066   4.324  27.789  0.00  0.00    +0.000 C 
ENDBRANCH   1   7
BRANCH   1   8
ATOM      8  O   UNL     1     -15.149   4.078  25.653  0.00  0.00    +0.000 OA
ATOM      9  H   UNL     1     -15.302   4.512  24.797  0.00  0.00    +0.000 HD
ENDBRANCH   1   8
TORSDOF 3
ENDMDL
MODEL 9
REMARK VINA RESULT:    -3.093      9.086     10.438
REMARK INTER + INTRA:          -3.622
REMARK INTER:                  -3.481
REMARK INTRA:                  -0.142
REMARK UNBOUND:                -0.077
REMARK  Name = C:\Users\sofiya chavarekar\OneDrive\Assignment- Module 1\PROJECT(AI-based drug target identification for SDH-related rare disorders)\Data\Ligands\PDB\Ligand_0064.pdb
REMARK  7 active torsions:
REMARK  status: ('A' for Active; 'I' for Inactive)
REMARK    1  A    between atoms: C_1  and  C_2
REMARK    2  A    between atoms: C_2  and  C_3
REMARK    3  A    between atoms: C_3  and  C_4
REMARK    4  A    between atoms: C_3  and  O_5
REMARK    5  A    between atoms: C_3  and  C_6
REMARK    6  A    between atoms: C_6  and  C_7
REMARK    7  A    between atoms: C_6  and  C_8
REMARK                            x       y       z     vdW  Elec       q    Type
REMARK                         _______ _______ _______ _____ _____    ______ ____
ROOT
ATOM      1  C   UNL     1     -18.721  -1.575  29.885  0.00  0.00    +0.000 C 
ATOM      2  C   UNL     1     -18.897  -2.078  28.442  0.00  0.00    +0.000 C 
ENDROOT
BRANCH   1   3
ATOM      3  C   UNL     1     -17.658  -0.440  30.000  0.00  0.00    +0.000 C 
ATOM      4  C   UNL     1     -18.285   0.963  30.030  0.00  0.00    +0.000 C 
ATOM      5  C   UNL     1     -16.713  -0.591  31.199  0.00  0.00    +0.000 C 
ENDBRANCH   1   3
BRANCH   1   7
ATOM      6  C   UNL     1     -20.332  -1.588  31.907  0.00  0.00    +0.000 C 
ATOM      7  C   UNL     1     -20.108  -1.187  30.453  0.00  0.00    +0.000 C 
ENDBRANCH   1   7
BRANCH   1   8
ATOM      8  O   UNL     1     -18.236  -2.687  30.656  0.00  0.00    +0.000 OA
ATOM      9  H   UNL     1     -19.001  -3.216  30.940  0.00  0.00    +0.000 HD
ENDBRANCH   1   8
TORSDOF 3
ENDMDL
