MODEL 1
REMARK VINA RESULT:    -4.298      0.000      0.000
REMARK INTER + INTRA:          -4.298
REMARK INTER:                  -4.298
REMARK INTRA:                   0.000
REMARK UNBOUND:                 0.000
REMARK  Name = C:\Users\sofiya chavarekar\OneDrive\Assignment- Module 1\PROJECT(AI-based drug target identification for SDH-related rare disorders)\Data\Ligands\PDB\Ligand_0041.pdb
REMARK  0 active torsions:
REMARK  status: ('A' for Active; 'I' for Inactive)
REMARK                            x       y       z     vdW  Elec       q    Type
REMARK                         _______ _______ _______ _____ _____    ______ ____
ROOT
ATOM      1 BR   UNL     1      -9.991   4.595  25.817  0.00  0.00    +0.000 Br
ATOM      2  C   UNL     1     -11.631   5.522  25.977  0.00  0.00    +0.000 A 
ATOM      3  C   UNL     1     -11.846   6.677  25.228  0.00  0.00    +0.000 A 
ATOM      4  C   UNL     1     -13.052   7.368  25.354  0.00  0.00    +0.000 A 
ATOM      5  C   UNL     1     -14.040   6.906  26.232  0.00  0.00    +0.000 A 
ATOM      6 BR   UNL     1     -15.641   7.924  26.345  0.00  0.00    +0.000 Br
ATOM      7  C   UNL     1     -13.819   5.742  26.978  0.00  0.00    +0.000 A 
ATOM      8 BR   UNL     1     -15.095   5.035  28.195  0.00  0.00    +0.000 Br
ATOM      9  C   UNL     1     -12.611   5.049  26.847  0.00  0.00    +0.000 A 
ENDROOT
TORSDOF 0
ENDMDL
MODEL 2
REMARK VINA RESULT:    -4.194      1.456      2.559
REMARK INTER + INTRA:          -4.194
REMARK INTER:                  -4.194
REMARK INTRA:                   0.000
REMARK UNBOUND:                 0.000
REMARK  Name = C:\Users\sofiya chavarekar\OneDrive\Assignment- Module 1\PROJECT(AI-based drug target identification for SDH-related rare disorders)\Data\Ligands\PDB\Ligand_0041.pdb
REMARK  0 active torsions:
REMARK  status: ('A' for Active; 'I' for Inactive)
REMARK                            x       y       z     vdW  Elec       q    Type
REMARK                         _______ _______ _______ _____ _____    ______ ____
ROOT
ATOM      1 BR   UNL     1     -10.820   5.554  25.741  0.00  0.00    +0.000 Br
ATOM      2  C   UNL     1     -12.608   5.983  26.179  0.00  0.00    +0.000 A 
ATOM      3  C   UNL     1     -13.483   4.972  26.575  0.00  0.00    +0.000 A 
ATOM      4  C   UNL     1     -14.806   5.287  26.888  0.00  0.00    +0.000 A 
ATOM      5  C   UNL     1     -15.255   6.610  26.802  0.00  0.00    +0.000 A 
ATOM      6 BR   UNL     1     -17.076   6.935  27.233  0.00  0.00    +0.000 Br
ATOM      7  C   UNL     1     -14.370   7.621  26.408  0.00  0.00    +0.000 A 
ATOM      8 BR   UNL     1     -14.880   9.444  26.260  0.00  0.00    +0.000 Br
ATOM      9  C   UNL     1     -13.043   7.304  26.099  0.00  0.00    +0.000 A 
ENDROOT
TORSDOF 0
ENDMDL
MODEL 3
REMARK VINA RESULT:    -4.088      1.528      4.103
REMARK INTER + INTRA:          -4.088
REMARK INTER:                  -4.088
REMARK INTRA:                   0.000
REMARK UNBOUND:                 0.000
REMARK  Name = C:\Users\sofiya chavarekar\OneDrive\Assignment- Module 1\PROJECT(AI-based drug target identification for SDH-related rare disorders)\Data\Ligands\PDB\Ligand_0041.pdb
REMARK  0 active torsions:
REMARK  status: ('A' for Active; 'I' for Inactive)
REMARK                            x       y       z     vdW  Elec       q    Type
REMARK                         _______ _______ _______ _____ _____    ______ ____
ROOT
ATOM      1 BR   UNL     1     -15.085   9.794  26.006  0.00  0.00    +0.000 Br
ATOM      2  C   UNL     1     -14.677   7.980  26.348  0.00  0.00    +0.000 A 
ATOM      3  C   UNL     1     -15.667   7.131  26.839  0.00  0.00    +0.000 A 
ATOM      4  C   UNL     1     -15.364   5.794  27.100  0.00  0.00    +0.000 A 
ATOM      5  C   UNL     1     -14.070   5.308  26.877  0.00  0.00    +0.000 A 
ATOM      6 BR   UNL     1     -13.752   3.479  27.279  0.00  0.00    +0.000 Br
ATOM      7  C   UNL     1     -13.082   6.166  26.379  0.00  0.00    +0.000 A 
ATOM      8 BR   UNL     1     -11.299   5.604  26.041  0.00  0.00    +0.000 Br
ATOM      9  C   UNL     1     -13.389   7.505  26.113  0.00  0.00    +0.000 A 
ENDROOT
TORSDOF 0
ENDMDL
MODEL 4
REMARK VINA RESULT:    -3.970      1.469      3.870
REMARK INTER + INTRA:          -3.970
REMARK INTER:                  -3.970
REMARK INTRA:                   0.000
REMARK UNBOUND:                 0.000
REMARK  Name = C:\Users\sofiya chavarekar\OneDrive\Assignment- Module 1\PROJECT(AI-based drug target identification for SDH-related rare disorders)\Data\Ligands\PDB\Ligand_0041.pdb
REMARK  0 active torsions:
REMARK  status: ('A' for Active; 'I' for Inactive)
REMARK                            x       y       z     vdW  Elec       q    Type
REMARK                         _______ _______ _______ _____ _____    ______ ____
ROOT
ATOM      1 BR   UNL     1     -17.334   7.786  26.944  0.00  0.00    +0.000 Br
ATOM      2  C   UNL     1     -15.576   7.133  26.707  0.00  0.00    +0.000 A 
ATOM      3  C   UNL     1     -14.588   7.978  26.203  0.00  0.00    +0.000 A 
ATOM      4  C   UNL     1     -13.293   7.494  26.019  0.00  0.00    +0.000 A 
ATOM      5  C   UNL     1     -12.985   6.164  26.334  0.00  0.00    +0.000 A 
ATOM      6 BR   UNL     1     -11.198   5.595  26.033  0.00  0.00    +0.000 Br
ATOM      7  C   UNL     1     -13.981   5.323  26.845  0.00  0.00    +0.000 A 
ATOM      8 BR   UNL     1     -13.667   3.507  27.303  0.00  0.00    +0.000 Br
ATOM      9  C   UNL     1     -15.279   5.811  27.033  0.00  0.00    +0.000 A 
ENDROOT
TORSDOF 0
ENDMDL
MODEL 5
REMARK VINA RESULT:    -3.731      1.089      2.541
REMARK INTER + INTRA:          -3.731
REMARK INTER:                  -3.731
REMARK INTRA:                   0.000
REMARK UNBOUND:                 0.000
REMARK  Name = C:\Users\sofiya chavarekar\OneDrive\Assignment- Module 1\PROJECT(AI-based drug target identification for SDH-related rare disorders)\Data\Ligands\PDB\Ligand_0041.pdb
REMARK  0 active torsions:
REMARK  status: ('A' for Active; 'I' for Inactive)
REMARK                            x       y       z     vdW  Elec       q    Type
REMARK                         _______ _______ _______ _____ _____    ______ ____
ROOT
ATOM      1 BR   UNL     1     -10.385   7.065  23.841  0.00  0.00    +0.000 Br
ATOM      2  C   UNL     1     -11.670   6.559  25.132  0.00  0.00    +0.000 A 
ATOM      3  C   UNL     1     -11.427   5.458  25.952  0.00  0.00    +0.000 A 
ATOM      4  C   UNL     1     -12.380   5.078  26.899  0.00  0.00    +0.000 A 
ATOM      5  C   UNL     1     -13.576   5.796  27.022  0.00  0.00    +0.000 A 
ATOM      6 BR   UNL     1     -14.816   5.191  28.328  0.00  0.00    +0.000 Br
ATOM      7  C   UNL     1     -13.811   6.904  26.199  0.00  0.00    +0.000 A 
ATOM      8 BR   UNL     1     -15.398   7.942  26.288  0.00  0.00    +0.000 Br
ATOM      9  C   UNL     1     -12.852   7.286  25.253  0.00  0.00    +0.000 A 
ENDROOT
TORSDOF 0
ENDMDL
MODEL 6
REMARK VINA RESULT:    -3.650      2.036      2.683
REMARK INTER + INTRA:          -3.650
REMARK INTER:                  -3.650
REMARK INTRA:                   0.000
REMARK UNBOUND:                 0.000
REMARK  Name = C:\Users\sofiya chavarekar\OneDrive\Assignment- Module 1\PROJECT(AI-based drug target identification for SDH-related rare disorders)\Data\Ligands\PDB\Ligand_0041.pdb
REMARK  0 active torsions:
REMARK  status: ('A' for Active; 'I' for Inactive)
REMARK                            x       y       z     vdW  Elec       q    Type
REMARK                         _______ _______ _______ _____ _____    ______ ____
ROOT
ATOM      1 BR   UNL     1     -13.852   3.449  27.325  0.00  0.00    +0.000 Br
ATOM      2  C   UNL     1     -14.181   5.275  26.959  0.00  0.00    +0.000 A 
ATOM      3  C   UNL     1     -13.146   6.082  26.492  0.00  0.00    +0.000 A 
ATOM      4  C   UNL     1     -13.386   7.432  26.231  0.00  0.00    +0.000 A 
ATOM      5  C   UNL     1     -14.659   7.975  26.442  0.00  0.00    +0.000 A 
ATOM      6 BR   UNL     1     -14.882   9.825  26.074  0.00  0.00    +0.000 Br
ATOM      7  C   UNL     1     -15.696   7.156  26.907  0.00  0.00    +0.000 A 
ATOM      8 BR   UNL     1     -17.456   7.796  27.225  0.00  0.00    +0.000 Br
ATOM      9  C   UNL     1     -15.454   5.802  27.164  0.00  0.00    +0.000 A 
ENDROOT
TORSDOF 0
ENDMDL
MODEL 7
REMARK VINA RESULT:    -3.619      1.844      4.258
REMARK INTER + INTRA:          -3.619
REMARK INTER:                  -3.619
REMARK INTRA:                   0.000
REMARK UNBOUND:                 0.000
REMARK  Name = C:\Users\sofiya chavarekar\OneDrive\Assignment- Module 1\PROJECT(AI-based drug target identification for SDH-related rare disorders)\Data\Ligands\PDB\Ligand_0041.pdb
REMARK  0 active torsions:
REMARK  status: ('A' for Active; 'I' for Inactive)
REMARK                            x       y       z     vdW  Elec       q    Type
REMARK                         _______ _______ _______ _____ _____    ______ ____
ROOT
ATOM      1 BR   UNL     1     -17.389   3.649  27.729  0.00  0.00    +0.000 Br
ATOM      2  C   UNL     1     -15.690   4.324  27.247  0.00  0.00    +0.000 A 
ATOM      3  C   UNL     1     -14.590   3.469  27.219  0.00  0.00    +0.000 A 
ATOM      4  C   UNL     1     -13.334   3.969  26.873  0.00  0.00    +0.000 A 
ATOM      5  C   UNL     1     -13.178   5.325  26.559  0.00  0.00    +0.000 A 
ATOM      6 BR   UNL     1     -11.427   5.913  26.116  0.00  0.00    +0.000 Br
ATOM      7  C   UNL     1     -14.288   6.177  26.584  0.00  0.00    +0.000 A 
ATOM      8 BR   UNL     1     -14.181   8.029  26.174  0.00  0.00    +0.000 Br
ATOM      9  C   UNL     1     -15.547   5.673  26.927  0.00  0.00    +0.000 A 
ENDROOT
TORSDOF 0
ENDMDL
MODEL 8
REMARK VINA RESULT:    -3.373      3.265      4.715
REMARK INTER + INTRA:          -3.373
REMARK INTER:                  -3.373
REMARK INTRA:                   0.000
REMARK UNBOUND:                 0.000
REMARK  Name = C:\Users\sofiya chavarekar\OneDrive\Assignment- Module 1\PROJECT(AI-based drug target identification for SDH-related rare disorders)\Data\Ligands\PDB\Ligand_0041.pdb
REMARK  0 active torsions:
REMARK  status: ('A' for Active; 'I' for Inactive)
REMARK                            x       y       z     vdW  Elec       q    Type
REMARK                         _______ _______ _______ _____ _____    ______ ____
ROOT
ATOM      1 BR   UNL     1     -13.788   6.199  25.737  0.00  0.00    +0.000 Br
ATOM      2  C   UNL     1     -14.235   4.520  26.481  0.00  0.00    +0.000 A 
ATOM      3  C   UNL     1     -13.378   3.924  27.404  0.00  0.00    +0.000 A 
ATOM      4  C   UNL     1     -13.703   2.679  27.945  0.00  0.00    +0.000 A 
ATOM      5  C   UNL     1     -14.882   2.030  27.561  0.00  0.00    +0.000 A 
ATOM      6 BR   UNL     1     -15.228   0.333  28.342  0.00  0.00    +0.000 Br
ATOM      7  C   UNL     1     -15.741   2.637  26.638  0.00  0.00    +0.000 A 
ATOM      8 BR   UNL     1     -17.363   1.839  26.053  0.00  0.00    +0.000 Br
ATOM      9  C   UNL     1     -15.416   3.886  26.099  0.00  0.00    +0.000 A 
ENDROOT
TORSDOF 0
ENDMDL
MODEL 9
REMARK VINA RESULT:    -3.320      2.832      4.144
REMARK INTER + INTRA:          -3.320
REMARK INTER:                  -3.320
REMARK INTRA:                   0.000
REMARK UNBOUND:                 0.000
REMARK  Name = C:\Users\sofiya chavarekar\OneDrive\Assignment- Module 1\PROJECT(AI-based drug target identification for SDH-related rare disorders)\Data\Ligands\PDB\Ligand_0041.pdb
REMARK  0 active torsions:
REMARK  status: ('A' for Active; 'I' for Inactive)
REMARK                            x       y       z     vdW  Elec       q    Type
REMARK                         _______ _______ _______ _____ _____    ______ ____
ROOT
ATOM      1 BR   UNL     1     -12.739   6.775  25.410  0.00  0.00    +0.000 Br
ATOM      2  C   UNL     1     -14.215   7.562  26.291  0.00  0.00    +0.000 A 
ATOM      3  C   UNL     1     -15.059   6.768  27.066  0.00  0.00    +0.000 A 
ATOM      4  C   UNL     1     -16.155   7.347  27.708  0.00  0.00    +0.000 A 
ATOM      5  C   UNL     1     -16.409   8.717  27.572  0.00  0.00    +0.000 A 
ATOM      6 BR   UNL     1     -17.933   9.408  28.471  0.00  0.00    +0.000 Br
ATOM      7  C   UNL     1     -15.554   9.509  26.795  0.00  0.00    +0.000 A 
ATOM      8 BR   UNL     1     -15.812  11.374  26.548  0.00  0.00    +0.000 Br
ATOM      9  C   UNL     1     -14.454   8.928  26.156  0.00  0.00    +0.000 A 
ENDROOT
TORSDOF 0
ENDMDL
