MODEL 1
REMARK VINA RESULT:    -4.733      0.000      0.000
REMARK INTER + INTRA:          -4.733
REMARK INTER:                  -4.733
REMARK INTRA:                   0.000
REMARK UNBOUND:                 0.000
REMARK  Name = C:\Users\sofiya chavarekar\OneDrive\Assignment- Module 1\PROJECT(AI-based drug target identification for SDH-related rare disorders)\Data\Ligands\PDB\Ligand_0010.pdb
REMARK  0 active torsions:
REMARK  status: ('A' for Active; 'I' for Inactive)
REMARK                            x       y       z     vdW  Elec       q    Type
REMARK                         _______ _______ _______ _____ _____    ______ ____
ROOT
ATOM      1  C   UNL     1     -11.177   6.263  25.545  0.00  0.00    +0.000 A 
ATOM      2  C   UNL     1     -12.202   7.085  25.051  0.00  0.00    +0.000 A 
ATOM      3  C   UNL     1     -13.542   6.780  25.301  0.00  0.00    +0.000 A 
ATOM      4  C   UNL     1     -13.829   5.638  26.030  0.00  0.00    +0.000 A 
ATOM      5  C   UNL     1     -12.807   4.818  26.520  0.00  0.00    +0.000 A 
ATOM      6  C   UNL     1     -11.476   5.123  26.294  0.00  0.00    +0.000 A 
ATOM      7  C   UNL     1     -13.372   3.678  27.306  0.00  0.00    +0.000 C 
ATOM      8  C   UNL     1     -14.828   3.673  26.817  0.00  0.00    +0.000 C 
ATOM      9  C   UNL     1     -15.171   5.124  26.447  0.00  0.00    +0.000 C 
ENDROOT
TORSDOF 0
ENDMDL
MODEL 2
REMARK VINA RESULT:    -4.567      1.438      3.677
REMARK INTER + INTRA:          -4.567
REMARK INTER:                  -4.567
REMARK INTRA:                   0.000
REMARK UNBOUND:                 0.000
REMARK  Name = C:\Users\sofiya chavarekar\OneDrive\Assignment- Module 1\PROJECT(AI-based drug target identification for SDH-related rare disorders)\Data\Ligands\PDB\Ligand_0010.pdb
REMARK  0 active torsions:
REMARK  status: ('A' for Active; 'I' for Inactive)
REMARK                            x       y       z     vdW  Elec       q    Type
REMARK                         _______ _______ _______ _____ _____    ______ ____
ROOT
ATOM      1  C   UNL     1     -13.752   7.188  25.820  0.00  0.00    +0.000 A 
ATOM      2  C   UNL     1     -13.692   6.254  26.866  0.00  0.00    +0.000 A 
ATOM      3  C   UNL     1     -12.578   5.426  27.018  0.00  0.00    +0.000 A 
ATOM      4  C   UNL     1     -11.548   5.537  26.100  0.00  0.00    +0.000 A 
ATOM      5  C   UNL     1     -11.609   6.465  25.055  0.00  0.00    +0.000 A 
ATOM      6  C   UNL     1     -12.700   7.304  24.907  0.00  0.00    +0.000 A 
ATOM      7  C   UNL     1     -10.363   6.418  24.229  0.00  0.00    +0.000 C 
ATOM      8  C   UNL     1      -9.793   5.049  24.629  0.00  0.00    +0.000 C 
ATOM      9  C   UNL     1     -10.253   4.786  26.071  0.00  0.00    +0.000 C 
ENDROOT
TORSDOF 0
ENDMDL
MODEL 3
REMARK VINA RESULT:    -4.524      0.884      2.223
REMARK INTER + INTRA:          -4.524
REMARK INTER:                  -4.524
REMARK INTRA:                   0.000
REMARK UNBOUND:                 0.000
REMARK  Name = C:\Users\sofiya chavarekar\OneDrive\Assignment- Module 1\PROJECT(AI-based drug target identification for SDH-related rare disorders)\Data\Ligands\PDB\Ligand_0010.pdb
REMARK  0 active torsions:
REMARK  status: ('A' for Active; 'I' for Inactive)
REMARK                            x       y       z     vdW  Elec       q    Type
REMARK                         _______ _______ _______ _____ _____    ______ ____
ROOT
ATOM      1  C   UNL     1     -11.216   6.653  24.960  0.00  0.00    +0.000 A 
ATOM      2  C   UNL     1     -10.747   5.526  25.653  0.00  0.00    +0.000 A 
ATOM      3  C   UNL     1     -11.599   4.797  26.486  0.00  0.00    +0.000 A 
ATOM      4  C   UNL     1     -12.907   5.227  26.624  0.00  0.00    +0.000 A 
ATOM      5  C   UNL     1     -13.374   6.352  25.935  0.00  0.00    +0.000 A 
ATOM      6  C   UNL     1     -12.543   7.070  25.093  0.00  0.00    +0.000 A 
ATOM      7  C   UNL     1     -14.824   6.585  26.219  0.00  0.00    +0.000 C 
ATOM      8  C   UNL     1     -15.012   5.758  27.499  0.00  0.00    +0.000 C 
ATOM      9  C   UNL     1     -14.004   4.601  27.427  0.00  0.00    +0.000 C 
ENDROOT
TORSDOF 0
ENDMDL
MODEL 4
REMARK VINA RESULT:    -4.503      1.246      3.093
REMARK INTER + INTRA:          -4.503
REMARK INTER:                  -4.503
REMARK INTRA:                   0.000
REMARK UNBOUND:                 0.000
REMARK  Name = C:\Users\sofiya chavarekar\OneDrive\Assignment- Module 1\PROJECT(AI-based drug target identification for SDH-related rare disorders)\Data\Ligands\PDB\Ligand_0010.pdb
REMARK  0 active torsions:
REMARK  status: ('A' for Active; 'I' for Inactive)
REMARK                            x       y       z     vdW  Elec       q    Type
REMARK                         _______ _______ _______ _____ _____    ______ ____
ROOT
ATOM      1  C   UNL     1     -15.275   6.392  27.354  0.00  0.00    +0.000 A 
ATOM      2  C   UNL     1     -15.046   7.609  26.694  0.00  0.00    +0.000 A 
ATOM      3  C   UNL     1     -13.853   7.830  26.001  0.00  0.00    +0.000 A 
ATOM      4  C   UNL     1     -12.900   6.826  26.001  0.00  0.00    +0.000 A 
ATOM      5  C   UNL     1     -13.127   5.614  26.662  0.00  0.00    +0.000 A 
ATOM      6  C   UNL     1     -14.314   5.379  27.335  0.00  0.00    +0.000 A 
ATOM      7  C   UNL     1     -11.969   4.685  26.481  0.00  0.00    +0.000 C 
ATOM      8  C   UNL     1     -10.868   5.663  26.047  0.00  0.00    +0.000 C 
ATOM      9  C   UNL     1     -11.570   6.817  25.313  0.00  0.00    +0.000 C 
ENDROOT
TORSDOF 0
ENDMDL
MODEL 5
REMARK VINA RESULT:    -4.467      0.589      3.742
REMARK INTER + INTRA:          -4.467
REMARK INTER:                  -4.467
REMARK INTRA:                   0.000
REMARK UNBOUND:                 0.000
REMARK  Name = C:\Users\sofiya chavarekar\OneDrive\Assignment- Module 1\PROJECT(AI-based drug target identification for SDH-related rare disorders)\Data\Ligands\PDB\Ligand_0010.pdb
REMARK  0 active torsions:
REMARK  status: ('A' for Active; 'I' for Inactive)
REMARK                            x       y       z     vdW  Elec       q    Type
REMARK                         _______ _______ _______ _____ _____    ______ ____
ROOT
ATOM      1  C   UNL     1     -15.374   4.592  26.858  0.00  0.00    +0.000 A 
ATOM      2  C   UNL     1     -14.428   3.637  27.263  0.00  0.00    +0.000 A 
ATOM      3  C   UNL     1     -13.062   3.867  27.081  0.00  0.00    +0.000 A 
ATOM      4  C   UNL     1     -12.671   5.048  26.473  0.00  0.00    +0.000 A 
ATOM      5  C   UNL     1     -13.615   5.998  26.067  0.00  0.00    +0.000 A 
ATOM      6  C   UNL     1     -14.970   5.788  26.261  0.00  0.00    +0.000 A 
ATOM      7  C   UNL     1     -12.942   7.197  25.479  0.00  0.00    +0.000 C 
ATOM      8  C   UNL     1     -11.549   6.632  25.165  0.00  0.00    +0.000 C 
ATOM      9  C   UNL     1     -11.280   5.528  26.199  0.00  0.00    +0.000 C 
ENDROOT
TORSDOF 0
ENDMDL
MODEL 6
REMARK VINA RESULT:    -4.270      1.670      3.075
REMARK INTER + INTRA:          -4.270
REMARK INTER:                  -4.270
REMARK INTRA:                   0.000
REMARK UNBOUND:                 0.000
REMARK  Name = C:\Users\sofiya chavarekar\OneDrive\Assignment- Module 1\PROJECT(AI-based drug target identification for SDH-related rare disorders)\Data\Ligands\PDB\Ligand_0010.pdb
REMARK  0 active torsions:
REMARK  status: ('A' for Active; 'I' for Inactive)
REMARK                            x       y       z     vdW  Elec       q    Type
REMARK                         _______ _______ _______ _____ _____    ______ ____
ROOT
ATOM      1  C   UNL     1     -13.034   4.763  26.587  0.00  0.00    +0.000 A 
ATOM      2  C   UNL     1     -12.129   5.735  26.131  0.00  0.00    +0.000 A 
ATOM      3  C   UNL     1     -12.535   7.060  25.957  0.00  0.00    +0.000 A 
ATOM      4  C   UNL     1     -13.854   7.382  26.226  0.00  0.00    +0.000 A 
ATOM      5  C   UNL     1     -14.757   6.413  26.678  0.00  0.00    +0.000 A 
ATOM      6  C   UNL     1     -14.359   5.101  26.872  0.00  0.00    +0.000 A 
ATOM      7  C   UNL     1     -16.101   7.017  26.934  0.00  0.00    +0.000 C 
ATOM      8  C   UNL     1     -15.995   8.326  26.138  0.00  0.00    +0.000 C 
ATOM      9  C   UNL     1     -14.511   8.724  26.144  0.00  0.00    +0.000 C 
ENDROOT
TORSDOF 0
ENDMDL
MODEL 7
REMARK VINA RESULT:    -4.191      1.342      2.650
REMARK INTER + INTRA:          -4.191
REMARK INTER:                  -4.191
REMARK INTRA:                   0.000
REMARK UNBOUND:                 0.000
REMARK  Name = C:\Users\sofiya chavarekar\OneDrive\Assignment- Module 1\PROJECT(AI-based drug target identification for SDH-related rare disorders)\Data\Ligands\PDB\Ligand_0010.pdb
REMARK  0 active torsions:
REMARK  status: ('A' for Active; 'I' for Inactive)
REMARK                            x       y       z     vdW  Elec       q    Type
REMARK                         _______ _______ _______ _____ _____    ______ ____
ROOT
ATOM      1  C   UNL     1     -11.957   6.523  25.704  0.00  0.00    +0.000 A 
ATOM      2  C   UNL     1     -12.072   5.253  26.291  0.00  0.00    +0.000 A 
ATOM      3  C   UNL     1     -13.290   4.822  26.821  0.00  0.00    +0.000 A 
ATOM      4  C   UNL     1     -14.371   5.685  26.769  0.00  0.00    +0.000 A 
ATOM      5  C   UNL     1     -14.255   6.952  26.187  0.00  0.00    +0.000 A 
ATOM      6  C   UNL     1     -13.057   7.382  25.642  0.00  0.00    +0.000 A 
ATOM      7  C   UNL     1     -15.566   7.673  26.218  0.00  0.00    +0.000 C 
ATOM      8  C   UNL     1     -16.317   6.876  27.294  0.00  0.00    +0.000 C 
ATOM      9  C   UNL     1     -15.771   5.441  27.239  0.00  0.00    +0.000 C 
ENDROOT
TORSDOF 0
ENDMDL
MODEL 8
REMARK VINA RESULT:    -3.972      1.277      2.460
REMARK INTER + INTRA:          -3.972
REMARK INTER:                  -3.972
REMARK INTRA:                   0.000
REMARK UNBOUND:                 0.000
REMARK  Name = C:\Users\sofiya chavarekar\OneDrive\Assignment- Module 1\PROJECT(AI-based drug target identification for SDH-related rare disorders)\Data\Ligands\PDB\Ligand_0010.pdb
REMARK  0 active torsions:
REMARK  status: ('A' for Active; 'I' for Inactive)
REMARK                            x       y       z     vdW  Elec       q    Type
REMARK                         _______ _______ _______ _____ _____    ______ ____
ROOT
ATOM      1  C   UNL     1     -10.329   3.966  26.122  0.00  0.00    +0.000 A 
ATOM      2  C   UNL     1      -9.884   4.952  25.226  0.00  0.00    +0.000 A 
ATOM      3  C   UNL     1     -10.682   6.060  24.935  0.00  0.00    +0.000 A 
ATOM      4  C   UNL     1     -11.925   6.150  25.537  0.00  0.00    +0.000 A 
ATOM      5  C   UNL     1     -12.369   5.166  26.428  0.00  0.00    +0.000 A 
ATOM      6  C   UNL     1     -11.578   4.073  26.737  0.00  0.00    +0.000 A 
ATOM      7  C   UNL     1     -13.719   5.512  26.971  0.00  0.00    +0.000 C 
ATOM      8  C   UNL     1     -14.196   6.549  25.944  0.00  0.00    +0.000 C 
ATOM      9  C   UNL     1     -12.937   7.246  25.407  0.00  0.00    +0.000 C 
ENDROOT
TORSDOF 0
ENDMDL
MODEL 9
REMARK VINA RESULT:    -3.899      1.744      3.655
REMARK INTER + INTRA:          -3.899
REMARK INTER:                  -3.899
REMARK INTRA:                   0.000
REMARK UNBOUND:                 0.000
REMARK  Name = C:\Users\sofiya chavarekar\OneDrive\Assignment- Module 1\PROJECT(AI-based drug target identification for SDH-related rare disorders)\Data\Ligands\PDB\Ligand_0010.pdb
REMARK  0 active torsions:
REMARK  status: ('A' for Active; 'I' for Inactive)
REMARK                            x       y       z     vdW  Elec       q    Type
REMARK                         _______ _______ _______ _____ _____    ______ ____
ROOT
ATOM      1  C   UNL     1     -16.247   8.061  26.470  0.00  0.00    +0.000 A 
ATOM      2  C   UNL     1     -16.743   6.865  27.013  0.00  0.00    +0.000 A 
ATOM      3  C   UNL     1     -15.892   5.784  27.251  0.00  0.00    +0.000 A 
ATOM      4  C   UNL     1     -14.554   5.917  26.919  0.00  0.00    +0.000 A 
ATOM      5  C   UNL     1     -14.060   7.107  26.375  0.00  0.00    +0.000 A 
ATOM      6  C   UNL     1     -14.892   8.191  26.153  0.00  0.00    +0.000 A 
ATOM      7  C   UNL     1     -12.586   7.014  26.143  0.00  0.00    +0.000 C 
ATOM      8  C   UNL     1     -12.377   5.493  26.171  0.00  0.00    +0.000 C 
ATOM      9  C   UNL     1     -13.454   4.919  27.104  0.00  0.00    +0.000 C 
ENDROOT
TORSDOF 0
ENDMDL
