MODEL 1
REMARK VINA RESULT:    -3.068      0.000      0.000
REMARK INTER + INTRA:          -3.433
REMARK INTER:                  -3.427
REMARK INTRA:                  -0.006
REMARK UNBOUND:                -0.006
REMARK  Name = C:\Users\sofiya chavarekar\OneDrive\Assignment- Module 1\PROJECT(AI-based drug target identification for SDH-related rare disorders)\Data\Ligands\PDB\Ligand_0030.pdb
REMARK  3 active torsions:
REMARK  status: ('A' for Active; 'I' for Inactive)
REMARK    1  A    between atoms: C_1  and  C_2
REMARK    2  A    between atoms: C_2  and  C_3
REMARK    3  A    between atoms: C_3  and  C_4
REMARK                            x       y       z     vdW  Elec       q    Type
REMARK                         _______ _______ _______ _____ _____    ______ ____
ROOT
ATOM      1  C   UNL     1     -11.116   5.523  26.113  0.00  0.00    +0.000 C 
ENDROOT
BRANCH   1   3
ATOM      2  C   UNL     1      -9.588   3.477  26.156  0.00  0.00    +0.000 C 
ATOM      3  C   UNL     1      -9.955   4.776  25.454  0.00  0.00    +0.000 C 
ENDBRANCH   1   3
BRANCH   1   4
ATOM      4  C   UNL     1     -11.681   6.642  25.256  0.00  0.00    +0.000 C 
ATOM      5 BR   UNL     1     -13.534   6.981  25.762  0.00  0.00    +0.000 Br
ENDBRANCH   1   4
TORSDOF 2
ENDMDL
MODEL 2
REMARK VINA RESULT:    -3.015      0.988      1.531
REMARK INTER + INTRA:          -3.374
REMARK INTER:                  -3.312
REMARK INTRA:                  -0.062
REMARK UNBOUND:                -0.006
REMARK  Name = C:\Users\sofiya chavarekar\OneDrive\Assignment- Module 1\PROJECT(AI-based drug target identification for SDH-related rare disorders)\Data\Ligands\PDB\Ligand_0030.pdb
REMARK  3 active torsions:
REMARK  status: ('A' for Active; 'I' for Inactive)
REMARK    1  A    between atoms: C_1  and  C_2
REMARK    2  A    between atoms: C_2  and  C_3
REMARK    3  A    between atoms: C_3  and  C_4
REMARK                            x       y       z     vdW  Elec       q    Type
REMARK                         _______ _______ _______ _____ _____    ______ ____
ROOT
ATOM      1  C   UNL     1     -11.642   6.640  25.268  0.00  0.00    +0.000 C 
ENDROOT
BRANCH   1   3
ATOM      2  C   UNL     1     -10.049   4.717  25.802  0.00  0.00    +0.000 C 
ATOM      3  C   UNL     1     -11.244   5.542  26.256  0.00  0.00    +0.000 C 
ENDBRANCH   1   3
BRANCH   1   4
ATOM      4  C   UNL     1     -13.110   7.022  25.346  0.00  0.00    +0.000 C 
ATOM      5 BR   UNL     1     -14.125   5.558  26.140  0.00  0.00    +0.000 Br
ENDBRANCH   1   4
TORSDOF 2
ENDMDL
MODEL 3
REMARK VINA RESULT:    -2.784      1.605      2.213
REMARK INTER + INTRA:          -3.116
REMARK INTER:                  -3.045
REMARK INTRA:                  -0.071
REMARK UNBOUND:                -0.006
REMARK  Name = C:\Users\sofiya chavarekar\OneDrive\Assignment- Module 1\PROJECT(AI-based drug target identification for SDH-related rare disorders)\Data\Ligands\PDB\Ligand_0030.pdb
REMARK  3 active torsions:
REMARK  status: ('A' for Active; 'I' for Inactive)
REMARK    1  A    between atoms: C_1  and  C_2
REMARK    2  A    between atoms: C_2  and  C_3
REMARK    3  A    between atoms: C_3  and  C_4
REMARK                            x       y       z     vdW  Elec       q    Type
REMARK                         _______ _______ _______ _____ _____    ______ ____
ROOT
ATOM      1  C   UNL     1     -12.586   5.861  26.726  0.00  0.00    +0.000 C 
ENDROOT
BRANCH   1   3
ATOM      2  C   UNL     1     -10.916   6.582  24.935  0.00  0.00    +0.000 C 
ATOM      3  C   UNL     1     -11.196   5.667  26.117  0.00  0.00    +0.000 C 
ENDBRANCH   1   3
BRANCH   1   4
ATOM      4  C   UNL     1     -13.635   6.295  25.716  0.00  0.00    +0.000 C 
ATOM      5 BR   UNL     1     -14.358   8.032  26.230  0.00  0.00    +0.000 Br
ENDBRANCH   1   4
TORSDOF 2
ENDMDL
MODEL 4
REMARK VINA RESULT:    -2.664      2.321      2.972
REMARK INTER + INTRA:          -2.982
REMARK INTER:                  -2.946
REMARK INTRA:                  -0.036
REMARK UNBOUND:                -0.006
REMARK  Name = C:\Users\sofiya chavarekar\OneDrive\Assignment- Module 1\PROJECT(AI-based drug target identification for SDH-related rare disorders)\Data\Ligands\PDB\Ligand_0030.pdb
REMARK  3 active torsions:
REMARK  status: ('A' for Active; 'I' for Inactive)
REMARK    1  A    between atoms: C_1  and  C_2
REMARK    2  A    between atoms: C_2  and  C_3
REMARK    3  A    between atoms: C_3  and  C_4
REMARK                            x       y       z     vdW  Elec       q    Type
REMARK                         _______ _______ _______ _____ _____    ______ ____
ROOT
ATOM      1  C   UNL     1     -13.551   5.967  26.255  0.00  0.00    +0.000 C 
ENDROOT
BRANCH   1   3
ATOM      2  C   UNL     1     -11.059   5.443  26.066  0.00  0.00    +0.000 C 
ATOM      3  C   UNL     1     -12.179   6.425  25.757  0.00  0.00    +0.000 C 
ENDBRANCH   1   3
BRANCH   1   4
ATOM      4  C   UNL     1     -13.576   4.518  26.713  0.00  0.00    +0.000 C 
ATOM      5 BR   UNL     1     -15.300   3.722  26.267  0.00  0.00    +0.000 Br
ENDBRANCH   1   4
TORSDOF 2
ENDMDL
MODEL 5
REMARK VINA RESULT:    -2.449      3.361      3.959
REMARK INTER + INTRA:          -2.742
REMARK INTER:                  -2.714
REMARK INTRA:                  -0.028
REMARK UNBOUND:                -0.006
REMARK  Name = C:\Users\sofiya chavarekar\OneDrive\Assignment- Module 1\PROJECT(AI-based drug target identification for SDH-related rare disorders)\Data\Ligands\PDB\Ligand_0030.pdb
REMARK  3 active torsions:
REMARK  status: ('A' for Active; 'I' for Inactive)
REMARK    1  A    between atoms: C_1  and  C_2
REMARK    2  A    between atoms: C_2  and  C_3
REMARK    3  A    between atoms: C_3  and  C_4
REMARK                            x       y       z     vdW  Elec       q    Type
REMARK                         _______ _______ _______ _____ _____    ______ ____
ROOT
ATOM      1  C   UNL     1     -14.527   5.703  26.520  0.00  0.00    +0.000 C 
ENDROOT
BRANCH   1   3
ATOM      2  C   UNL     1     -15.685   3.473  26.067  0.00  0.00    +0.000 C 
ATOM      3  C   UNL     1     -14.421   4.177  26.538  0.00  0.00    +0.000 C 
ENDBRANCH   1   3
BRANCH   1   4
ATOM      4  C   UNL     1     -13.681   6.356  25.441  0.00  0.00    +0.000 C 
ATOM      5 BR   UNL     1     -11.791   6.128  25.864  0.00  0.00    +0.000 Br
ENDBRANCH   1   4
TORSDOF 2
ENDMDL
MODEL 6
REMARK VINA RESULT:    -2.316      3.512      5.171
REMARK INTER + INTRA:          -2.594
REMARK INTER:                  -2.562
REMARK INTRA:                  -0.032
REMARK UNBOUND:                -0.006
REMARK  Name = C:\Users\sofiya chavarekar\OneDrive\Assignment- Module 1\PROJECT(AI-based drug target identification for SDH-related rare disorders)\Data\Ligands\PDB\Ligand_0030.pdb
REMARK  3 active torsions:
REMARK  status: ('A' for Active; 'I' for Inactive)
REMARK    1  A    between atoms: C_1  and  C_2
REMARK    2  A    between atoms: C_2  and  C_3
REMARK    3  A    between atoms: C_3  and  C_4
REMARK                            x       y       z     vdW  Elec       q    Type
REMARK                         _______ _______ _______ _____ _____    ______ ____
ROOT
ATOM      1  C   UNL     1     -14.691   7.152  26.384  0.00  0.00    +0.000 C 
ENDROOT
BRANCH   1   3
ATOM      2  C   UNL     1     -14.818   9.698  26.234  0.00  0.00    +0.000 C 
ATOM      3  C   UNL     1     -15.583   8.383  26.209  0.00  0.00    +0.000 C 
ENDBRANCH   1   3
BRANCH   1   4
ATOM      4  C   UNL     1     -13.351   7.270  25.680  0.00  0.00    +0.000 C 
ATOM      5 BR   UNL     1     -12.128   5.917  26.372  0.00  0.00    +0.000 Br
ENDBRANCH   1   4
TORSDOF 2
ENDMDL
MODEL 7
REMARK VINA RESULT:    -1.992      3.596      3.873
REMARK INTER + INTRA:          -2.231
REMARK INTER:                  -2.220
REMARK INTRA:                  -0.011
REMARK UNBOUND:                -0.006
REMARK  Name = C:\Users\sofiya chavarekar\OneDrive\Assignment- Module 1\PROJECT(AI-based drug target identification for SDH-related rare disorders)\Data\Ligands\PDB\Ligand_0030.pdb
REMARK  3 active torsions:
REMARK  status: ('A' for Active; 'I' for Inactive)
REMARK    1  A    between atoms: C_1  and  C_2
REMARK    2  A    between atoms: C_2  and  C_3
REMARK    3  A    between atoms: C_3  and  C_4
REMARK                            x       y       z     vdW  Elec       q    Type
REMARK                         _______ _______ _______ _____ _____    ______ ____
ROOT
ATOM      1  C   UNL     1     -14.288   5.204  26.131  0.00  0.00    +0.000 C 
ENDROOT
BRANCH   1   3
ATOM      2  C   UNL     1     -14.196   3.014  27.440  0.00  0.00    +0.000 C 
ATOM      3  C   UNL     1     -14.906   3.825  26.367  0.00  0.00    +0.000 C 
ENDBRANCH   1   3
BRANCH   1   4
ATOM      4  C   UNL     1     -14.775   6.262  27.106  0.00  0.00    +0.000 C 
ATOM      5 BR   UNL     1     -14.482   8.035  26.347  0.00  0.00    +0.000 Br
ENDBRANCH   1   4
TORSDOF 2
ENDMDL
MODEL 8
REMARK VINA RESULT:    -1.922     11.031     11.363
REMARK INTER + INTRA:          -2.153
REMARK INTER:                  -2.125
REMARK INTRA:                  -0.027
REMARK UNBOUND:                -0.006
REMARK  Name = C:\Users\sofiya chavarekar\OneDrive\Assignment- Module 1\PROJECT(AI-based drug target identification for SDH-related rare disorders)\Data\Ligands\PDB\Ligand_0030.pdb
REMARK  3 active torsions:
REMARK  status: ('A' for Active; 'I' for Inactive)
REMARK    1  A    between atoms: C_1  and  C_2
REMARK    2  A    between atoms: C_2  and  C_3
REMARK    3  A    between atoms: C_3  and  C_4
REMARK                            x       y       z     vdW  Elec       q    Type
REMARK                         _______ _______ _______ _____ _____    ______ ____
ROOT
ATOM      1  C   UNL     1     -18.180   0.444  32.131  0.00  0.00    +0.000 C 
ENDROOT
BRANCH   1   3
ATOM      2  C   UNL     1     -15.964  -0.145  33.255  0.00  0.00    +0.000 C 
ATOM      3  C   UNL     1     -16.917   0.959  32.825  0.00  0.00    +0.000 C 
ENDBRANCH   1   3
BRANCH   1   4
ATOM      4  C   UNL     1     -18.702  -0.858  32.714  0.00  0.00    +0.000 C 
ATOM      5 BR   UNL     1     -20.202  -1.499  31.643  0.00  0.00    +0.000 Br
ENDBRANCH   1   4
TORSDOF 2
ENDMDL
MODEL 9
REMARK VINA RESULT:    -1.864      3.515      4.053
REMARK INTER + INTRA:          -2.088
REMARK INTER:                  -2.053
REMARK INTRA:                  -0.035
REMARK UNBOUND:                -0.006
REMARK  Name = C:\Users\sofiya chavarekar\OneDrive\Assignment- Module 1\PROJECT(AI-based drug target identification for SDH-related rare disorders)\Data\Ligands\PDB\Ligand_0030.pdb
REMARK  3 active torsions:
REMARK  status: ('A' for Active; 'I' for Inactive)
REMARK    1  A    between atoms: C_1  and  C_2
REMARK    2  A    between atoms: C_2  and  C_3
REMARK    3  A    between atoms: C_3  and  C_4
REMARK                            x       y       z     vdW  Elec       q    Type
REMARK                         _______ _______ _______ _____ _____    ______ ____
ROOT
ATOM      1  C   UNL     1     -14.110   4.534  28.072  0.00  0.00    +0.000 C 
ENDROOT
BRANCH   1   3
ATOM      2  C   UNL     1     -12.495   5.921  26.663  0.00  0.00    +0.000 C 
ATOM      3  C   UNL     1     -13.296   4.633  26.781  0.00  0.00    +0.000 C 
ENDBRANCH   1   3
BRANCH   1   4
ATOM      4  C   UNL     1     -15.192   5.594  28.188  0.00  0.00    +0.000 C 
ATOM      5 BR   UNL     1     -16.881   4.880  27.523  0.00  0.00    +0.000 Br
ENDBRANCH   1   4
TORSDOF 2
ENDMDL
