MODEL 1
REMARK VINA RESULT:    -3.211      0.000      0.000
REMARK INTER + INTRA:          -3.493
REMARK INTER:                  -3.493
REMARK INTRA:                   0.000
REMARK UNBOUND:                 0.000
REMARK  Name = C:\Users\sofiya chavarekar\OneDrive\Assignment- Module 1\PROJECT(AI-based drug target identification for SDH-related rare disorders)\Data\Ligands\PDB\Ligand_0058.pdb
REMARK  5 active torsions:
REMARK  status: ('A' for Active; 'I' for Inactive)
REMARK    1  A    between atoms: C_1  and  C_2
REMARK    2  A    between atoms: C_2  and  C_3
REMARK    3  A    between atoms: C_2  and  C_4
REMARK    4  A    between atoms: C_2  and  C_5
REMARK    5  A    between atoms: C_5  and  O_6
REMARK                            x       y       z     vdW  Elec       q    Type
REMARK                         _______ _______ _______ _____ _____    ______ ____
ROOT
ATOM      1  C   UNL     1     -12.754   1.021  28.731  0.00  0.00    +0.000 C 
ATOM      2  C   UNL     1     -12.882  -0.510  28.663  0.00  0.00    +0.000 C 
ATOM      3  C   UNL     1     -14.087  -0.872  27.779  0.00  0.00    +0.000 C 
ATOM      4  C   UNL     1     -11.603  -1.091  28.035  0.00  0.00    +0.000 C 
ENDROOT
BRANCH   2   5
ATOM      5  C   UNL     1     -13.061  -1.108  30.075  0.00  0.00    +0.000 C 
BRANCH   5   6
ATOM      6  O   UNL     1     -12.466  -0.298  31.081  0.00  0.00    +0.000 OA
ATOM      7  H   UNL     1     -12.419   0.611  30.740  0.00  0.00    +0.000 HD
ENDBRANCH   5   6
ENDBRANCH   2   5
TORSDOF 2
ENDMDL
MODEL 2
REMARK VINA RESULT:    -2.947      4.778      5.379
REMARK INTER + INTRA:          -3.205
REMARK INTER:                  -3.205
REMARK INTRA:                   0.000
REMARK UNBOUND:                 0.000
REMARK  Name = C:\Users\sofiya chavarekar\OneDrive\Assignment- Module 1\PROJECT(AI-based drug target identification for SDH-related rare disorders)\Data\Ligands\PDB\Ligand_0058.pdb
REMARK  5 active torsions:
REMARK  status: ('A' for Active; 'I' for Inactive)
REMARK    1  A    between atoms: C_1  and  C_2
REMARK    2  A    between atoms: C_2  and  C_3
REMARK    3  A    between atoms: C_2  and  C_4
REMARK    4  A    between atoms: C_2  and  C_5
REMARK    5  A    between atoms: C_5  and  O_6
REMARK                            x       y       z     vdW  Elec       q    Type
REMARK                         _______ _______ _______ _____ _____    ______ ____
ROOT
ATOM      1  C   UNL     1     -17.265   1.366  32.008  0.00  0.00    +0.000 C 
ATOM      2  C   UNL     1     -16.815  -0.090  32.211  0.00  0.00    +0.000 C 
ATOM      3  C   UNL     1     -18.056  -0.998  32.231  0.00  0.00    +0.000 C 
ATOM      4  C   UNL     1     -15.909  -0.501  31.037  0.00  0.00    +0.000 C 
ENDROOT
BRANCH   2   5
ATOM      5  C   UNL     1     -16.024  -0.241  33.528  0.00  0.00    +0.000 C 
BRANCH   5   6
ATOM      6  O   UNL     1     -16.633  -1.169  34.417  0.00  0.00    +0.000 OA
ATOM      7  H   UNL     1     -16.208  -1.072  35.284  0.00  0.00    +0.000 HD
ENDBRANCH   5   6
ENDBRANCH   2   5
TORSDOF 2
ENDMDL
MODEL 3
REMARK VINA RESULT:    -2.810      5.303      6.111
REMARK INTER + INTRA:          -3.056
REMARK INTER:                  -3.056
REMARK INTRA:                   0.000
REMARK UNBOUND:                 0.000
REMARK  Name = C:\Users\sofiya chavarekar\OneDrive\Assignment- Module 1\PROJECT(AI-based drug target identification for SDH-related rare disorders)\Data\Ligands\PDB\Ligand_0058.pdb
REMARK  5 active torsions:
REMARK  status: ('A' for Active; 'I' for Inactive)
REMARK    1  A    between atoms: C_1  and  C_2
REMARK    2  A    between atoms: C_2  and  C_3
REMARK    3  A    between atoms: C_2  and  C_4
REMARK    4  A    between atoms: C_2  and  C_5
REMARK    5  A    between atoms: C_5  and  O_6
REMARK                            x       y       z     vdW  Elec       q    Type
REMARK                         _______ _______ _______ _____ _____    ______ ____
ROOT
ATOM      1  C   UNL     1     -16.842   0.612  31.189  0.00  0.00    +0.000 C 
ATOM      2  C   UNL     1     -17.307   0.158  32.583  0.00  0.00    +0.000 C 
ATOM      3  C   UNL     1     -17.921   1.360  33.320  0.00  0.00    +0.000 C 
ATOM      4  C   UNL     1     -18.377  -0.935  32.420  0.00  0.00    +0.000 C 
ENDROOT
BRANCH   2   5
ATOM      5  C   UNL     1     -16.126  -0.417  33.394  0.00  0.00    +0.000 C 
BRANCH   5   6
ATOM      6  O   UNL     1     -16.563  -1.173  34.516  0.00  0.00    +0.000 OA
ATOM      7  H   UNL     1     -15.776  -1.452  35.011  0.00  0.00    +0.000 HD
ENDBRANCH   5   6
ENDBRANCH   2   5
TORSDOF 2
ENDMDL
MODEL 4
REMARK VINA RESULT:    -2.774      6.558      7.164
REMARK INTER + INTRA:          -3.017
REMARK INTER:                  -3.017
REMARK INTRA:                   0.000
REMARK UNBOUND:                 0.000
REMARK  Name = C:\Users\sofiya chavarekar\OneDrive\Assignment- Module 1\PROJECT(AI-based drug target identification for SDH-related rare disorders)\Data\Ligands\PDB\Ligand_0058.pdb
REMARK  5 active torsions:
REMARK  status: ('A' for Active; 'I' for Inactive)
REMARK    1  A    between atoms: C_1  and  C_2
REMARK    2  A    between atoms: C_2  and  C_3
REMARK    3  A    between atoms: C_2  and  C_4
REMARK    4  A    between atoms: C_2  and  C_5
REMARK    5  A    between atoms: C_5  and  O_6
REMARK                            x       y       z     vdW  Elec       q    Type
REMARK                         _______ _______ _______ _____ _____    ______ ____
ROOT
ATOM      1  C   UNL     1     -14.297   5.361  28.226  0.00  0.00    +0.000 C 
ATOM      2  C   UNL     1     -14.000   5.273  26.720  0.00  0.00    +0.000 C 
ATOM      3  C   UNL     1     -12.519   4.911  26.523  0.00  0.00    +0.000 C 
ATOM      4  C   UNL     1     -14.876   4.170  26.102  0.00  0.00    +0.000 C 
ENDROOT
BRANCH   2   5
ATOM      5  C   UNL     1     -14.317   6.612  26.020  0.00  0.00    +0.000 C 
BRANCH   5   6
ATOM      6  O   UNL     1     -13.682   6.719  24.753  0.00  0.00    +0.000 OA
ATOM      7  H   UNL     1     -14.112   7.441  24.266  0.00  0.00    +0.000 HD
ENDBRANCH   5   6
ENDBRANCH   2   5
TORSDOF 2
ENDMDL
MODEL 5
REMARK VINA RESULT:    -2.737      6.071      6.868
REMARK INTER + INTRA:          -2.977
REMARK INTER:                  -2.977
REMARK INTRA:                   0.000
REMARK UNBOUND:                 0.000
REMARK  Name = C:\Users\sofiya chavarekar\OneDrive\Assignment- Module 1\PROJECT(AI-based drug target identification for SDH-related rare disorders)\Data\Ligands\PDB\Ligand_0058.pdb
REMARK  5 active torsions:
REMARK  status: ('A' for Active; 'I' for Inactive)
REMARK    1  A    between atoms: C_1  and  C_2
REMARK    2  A    between atoms: C_2  and  C_3
REMARK    3  A    between atoms: C_2  and  C_4
REMARK    4  A    between atoms: C_2  and  C_5
REMARK    5  A    between atoms: C_5  and  O_6
REMARK                            x       y       z     vdW  Elec       q    Type
REMARK                         _______ _______ _______ _____ _____    ______ ____
ROOT
ATOM      1  C   UNL     1     -18.854   0.907  31.676  0.00  0.00    +0.000 C 
ATOM      2  C   UNL     1     -18.627  -0.597  31.902  0.00  0.00    +0.000 C 
ATOM      3  C   UNL     1     -17.644  -0.783  33.070  0.00  0.00    +0.000 C 
ATOM      4  C   UNL     1     -19.969  -1.255  32.264  0.00  0.00    +0.000 C 
ENDROOT
BRANCH   2   5
ATOM      5  C   UNL     1     -18.071  -1.265  30.627  0.00  0.00    +0.000 C 
BRANCH   5   6
ATOM      6  O   UNL     1     -18.277  -2.672  30.625  0.00  0.00    +0.000 OA
ATOM      7  H   UNL     1     -18.478  -2.941  29.713  0.00  0.00    +0.000 HD
ENDBRANCH   5   6
ENDBRANCH   2   5
TORSDOF 2
ENDMDL
MODEL 6
REMARK VINA RESULT:    -2.657      7.282      8.072
REMARK INTER + INTRA:          -2.890
REMARK INTER:                  -2.890
REMARK INTRA:                   0.000
REMARK UNBOUND:                 0.000
REMARK  Name = C:\Users\sofiya chavarekar\OneDrive\Assignment- Module 1\PROJECT(AI-based drug target identification for SDH-related rare disorders)\Data\Ligands\PDB\Ligand_0058.pdb
REMARK  5 active torsions:
REMARK  status: ('A' for Active; 'I' for Inactive)
REMARK    1  A    between atoms: C_1  and  C_2
REMARK    2  A    between atoms: C_2  and  C_3
REMARK    3  A    between atoms: C_2  and  C_4
REMARK    4  A    between atoms: C_2  and  C_5
REMARK    5  A    between atoms: C_5  and  O_6
REMARK                            x       y       z     vdW  Elec       q    Type
REMARK                         _______ _______ _______ _____ _____    ______ ____
ROOT
ATOM      1  C   UNL     1     -14.543   5.034  25.968  0.00  0.00    +0.000 C 
ATOM      2  C   UNL     1     -13.670   6.246  26.335  0.00  0.00    +0.000 C 
ATOM      3  C   UNL     1     -14.578   7.469  26.542  0.00  0.00    +0.000 C 
ATOM      4  C   UNL     1     -12.922   5.944  27.645  0.00  0.00    +0.000 C 
ENDROOT
BRANCH   2   5
ATOM      5  C   UNL     1     -12.637   6.533  25.225  0.00  0.00    +0.000 C 
BRANCH   5   6
ATOM      6  O   UNL     1     -13.075   7.549  24.332  0.00  0.00    +0.000 OA
ATOM      7  H   UNL     1     -12.426   8.271  24.363  0.00  0.00    +0.000 HD
ENDBRANCH   5   6
ENDBRANCH   2   5
TORSDOF 2
ENDMDL
MODEL 7
REMARK VINA RESULT:    -2.604      6.475      7.113
REMARK INTER + INTRA:          -2.833
REMARK INTER:                  -2.833
REMARK INTRA:                   0.000
REMARK UNBOUND:                 0.000
REMARK  Name = C:\Users\sofiya chavarekar\OneDrive\Assignment- Module 1\PROJECT(AI-based drug target identification for SDH-related rare disorders)\Data\Ligands\PDB\Ligand_0058.pdb
REMARK  5 active torsions:
REMARK  status: ('A' for Active; 'I' for Inactive)
REMARK    1  A    between atoms: C_1  and  C_2
REMARK    2  A    between atoms: C_2  and  C_3
REMARK    3  A    between atoms: C_2  and  C_4
REMARK    4  A    between atoms: C_2  and  C_5
REMARK    5  A    between atoms: C_5  and  O_6
REMARK                            x       y       z     vdW  Elec       q    Type
REMARK                         _______ _______ _______ _____ _____    ______ ____
ROOT
ATOM      1  C   UNL     1     -14.843   4.228  26.143  0.00  0.00    +0.000 C 
ATOM      2  C   UNL     1     -14.090   5.356  26.869  0.00  0.00    +0.000 C 
ATOM      3  C   UNL     1     -14.188   5.125  28.386  0.00  0.00    +0.000 C 
ATOM      4  C   UNL     1     -12.611   5.319  26.448  0.00  0.00    +0.000 C 
ENDROOT
BRANCH   2   5
ATOM      5  C   UNL     1     -14.680   6.734  26.501  0.00  0.00    +0.000 C 
BRANCH   5   6
ATOM      6  O   UNL     1     -13.810   7.802  26.856  0.00  0.00    +0.000 OA
ATOM      7  H   UNL     1     -13.713   7.797  27.822  0.00  0.00    +0.000 HD
ENDBRANCH   5   6
ENDBRANCH   2   5
TORSDOF 2
ENDMDL
MODEL 8
REMARK VINA RESULT:    -2.601      1.449      2.541
REMARK INTER + INTRA:          -2.829
REMARK INTER:                  -2.829
REMARK INTRA:                   0.000
REMARK UNBOUND:                 0.000
REMARK  Name = C:\Users\sofiya chavarekar\OneDrive\Assignment- Module 1\PROJECT(AI-based drug target identification for SDH-related rare disorders)\Data\Ligands\PDB\Ligand_0058.pdb
REMARK  5 active torsions:
REMARK  status: ('A' for Active; 'I' for Inactive)
REMARK    1  A    between atoms: C_1  and  C_2
REMARK    2  A    between atoms: C_2  and  C_3
REMARK    3  A    between atoms: C_2  and  C_4
REMARK    4  A    between atoms: C_2  and  C_5
REMARK    5  A    between atoms: C_5  and  O_6
REMARK                            x       y       z     vdW  Elec       q    Type
REMARK                         _______ _______ _______ _____ _____    ______ ____
ROOT
ATOM      1  C   UNL     1     -14.881  -0.713  27.480  0.00  0.00    +0.000 C 
ATOM      2  C   UNL     1     -14.397   0.012  28.747  0.00  0.00    +0.000 C 
ATOM      3  C   UNL     1     -13.926   1.424  28.365  0.00  0.00    +0.000 C 
ATOM      4  C   UNL     1     -15.568   0.121  29.738  0.00  0.00    +0.000 C 
ENDROOT
BRANCH   2   5
ATOM      5  C   UNL     1     -13.247  -0.769  29.419  0.00  0.00    +0.000 C 
BRANCH   5   6
ATOM      6  O   UNL     1     -12.467   0.056  30.276  0.00  0.00    +0.000 OA
ATOM      7  H   UNL     1     -12.070   0.756  29.734  0.00  0.00    +0.000 HD
ENDBRANCH   5   6
ENDBRANCH   2   5
TORSDOF 2
ENDMDL
MODEL 9
REMARK VINA RESULT:    -2.580      8.432      9.485
REMARK INTER + INTRA:          -2.806
REMARK INTER:                  -2.806
REMARK INTRA:                   0.000
REMARK UNBOUND:                 0.000
REMARK  Name = C:\Users\sofiya chavarekar\OneDrive\Assignment- Module 1\PROJECT(AI-based drug target identification for SDH-related rare disorders)\Data\Ligands\PDB\Ligand_0058.pdb
REMARK  5 active torsions:
REMARK  status: ('A' for Active; 'I' for Inactive)
REMARK    1  A    between atoms: C_1  and  C_2
REMARK    2  A    between atoms: C_2  and  C_3
REMARK    3  A    between atoms: C_2  and  C_4
REMARK    4  A    between atoms: C_2  and  C_5
REMARK    5  A    between atoms: C_5  and  O_6
REMARK                            x       y       z     vdW  Elec       q    Type
REMARK                         _______ _______ _______ _____ _____    ______ ____
ROOT
ATOM      1  C   UNL     1     -20.518  -2.277  23.404  0.00  0.00    +0.000 C 
ATOM      2  C   UNL     1     -19.384  -2.020  22.397  0.00  0.00    +0.000 C 
ATOM      3  C   UNL     1     -19.681  -2.796  21.103  0.00  0.00    +0.000 C 
ATOM      4  C   UNL     1     -19.328  -0.515  22.082  0.00  0.00    +0.000 C 
ENDROOT
BRANCH   2   5
ATOM      5  C   UNL     1     -18.024  -2.458  22.980  0.00  0.00    +0.000 C 
BRANCH   5   6
ATOM      6  O   UNL     1     -17.972  -3.857  23.229  0.00  0.00    +0.000 OA
ATOM      7  H   UNL     1     -17.474  -4.270  22.504  0.00  0.00    +0.000 HD
ENDBRANCH   5   6
ENDBRANCH   2   5
TORSDOF 2
ENDMDL
