MODEL 1
REMARK VINA RESULT:    -3.694      0.000      0.000
REMARK INTER + INTRA:          -4.950
REMARK INTER:                  -4.882
REMARK INTRA:                  -0.068
REMARK UNBOUND:                -0.068
REMARK  Name = C:\Users\sofiya chavarekar\OneDrive\Assignment- Module 1\PROJECT(AI-based drug target identification for SDH-related rare disorders)\Data\Ligands\PDB\Ligand_0100.pdb
REMARK  7 active torsions:
REMARK  status: ('A' for Active; 'I' for Inactive)
REMARK    1  A    between atoms: C_1  and  C_2
REMARK    2  A    between atoms: C_2  and  C_3
REMARK    3  A    between atoms: C_3  and  C_4
REMARK    4  A    between atoms: C_4  and  O_5
REMARK    5  A    between atoms: O_5  and  C_6
REMARK    6  A    between atoms: C_6  and  C_7
REMARK    7  A    between atoms: C_7  and  O_8
REMARK                            x       y       z     vdW  Elec       q    Type
REMARK                         _______ _______ _______ _____ _____    ______ ____
ROOT
ATOM      1  O   UNL     1     -13.692   7.515  26.859  0.00  0.00    +0.000 OA
ENDROOT
BRANCH   1   2
ATOM      2  C   UNL     1     -13.060   6.916  25.730  0.00  0.00    +0.000 C 
BRANCH   2   3
ATOM      3  C   UNL     1     -12.130   5.790  26.176  0.00  0.00    +0.000 C 
BRANCH   3   5
ATOM      4  C   UNL     1      -9.935   4.526  25.826  0.00  0.00    +0.000 C 
ATOM      5  C   UNL     1     -10.758   5.764  25.501  0.00  0.00    +0.000 C 
ENDBRANCH   3   5
ENDBRANCH   2   3
ENDBRANCH   1   2
BRANCH   1   6
ATOM      6  C   UNL     1     -14.951   8.116  26.543  0.00  0.00    +0.000 C 
BRANCH   6   7
ATOM      7  C   UNL     1     -14.877   9.638  26.408  0.00  0.00    +0.000 C 
BRANCH   7   8
ATOM      8  O   UNL     1     -14.976  10.041  25.048  0.00  0.00    +0.000 OA
ATOM      9  H   UNL     1     -15.611  10.778  25.012  0.00  0.00    +0.000 HD
ENDBRANCH   7   8
ENDBRANCH   6   7
ENDBRANCH   1   6
TORSDOF 6
ENDMDL
MODEL 2
REMARK VINA RESULT:    -3.575      2.976      5.764
REMARK INTER + INTRA:          -4.792
REMARK INTER:                  -4.754
REMARK INTRA:                  -0.038
REMARK UNBOUND:                -0.068
REMARK  Name = C:\Users\sofiya chavarekar\OneDrive\Assignment- Module 1\PROJECT(AI-based drug target identification for SDH-related rare disorders)\Data\Ligands\PDB\Ligand_0100.pdb
REMARK  7 active torsions:
REMARK  status: ('A' for Active; 'I' for Inactive)
REMARK    1  A    between atoms: C_1  and  C_2
REMARK    2  A    between atoms: C_2  and  C_3
REMARK    3  A    between atoms: C_3  and  C_4
REMARK    4  A    between atoms: C_4  and  O_5
REMARK    5  A    between atoms: O_5  and  C_6
REMARK    6  A    between atoms: C_6  and  C_7
REMARK    7  A    between atoms: C_7  and  O_8
REMARK                            x       y       z     vdW  Elec       q    Type
REMARK                         _______ _______ _______ _____ _____    ______ ____
ROOT
ATOM      1  O   UNL     1     -10.604   5.410  25.320  0.00  0.00    +0.000 OA
ENDROOT
BRANCH   1   2
ATOM      2  C   UNL     1     -11.618   5.878  26.208  0.00  0.00    +0.000 C 
BRANCH   2   3
ATOM      3  C   UNL     1     -12.588   6.796  25.469  0.00  0.00    +0.000 C 
BRANCH   3   5
ATOM      4  C   UNL     1     -14.310   8.564  26.139  0.00  0.00    +0.000 C 
ATOM      5  C   UNL     1     -13.894   7.102  26.205  0.00  0.00    +0.000 C 
ENDBRANCH   3   5
ENDBRANCH   2   3
ENDBRANCH   1   2
BRANCH   1   6
ATOM      6  C   UNL     1      -9.703   4.485  25.937  0.00  0.00    +0.000 C 
BRANCH   6   7
ATOM      7  C   UNL     1      -9.302   3.329  25.019  0.00  0.00    +0.000 C 
BRANCH   7   8
ATOM      8  O   UNL     1      -8.471   3.779  23.956  0.00  0.00    +0.000 OA
ATOM      9  H   UNL     1      -7.549   3.617  24.223  0.00  0.00    +0.000 HD
ENDBRANCH   7   8
ENDBRANCH   6   7
ENDBRANCH   1   6
TORSDOF 6
ENDMDL
MODEL 3
REMARK VINA RESULT:    -3.408      1.411      1.567
REMARK INTER + INTRA:          -4.571
REMARK INTER:                  -4.466
REMARK INTRA:                  -0.105
REMARK UNBOUND:                -0.068
REMARK  Name = C:\Users\sofiya chavarekar\OneDrive\Assignment- Module 1\PROJECT(AI-based drug target identification for SDH-related rare disorders)\Data\Ligands\PDB\Ligand_0100.pdb
REMARK  7 active torsions:
REMARK  status: ('A' for Active; 'I' for Inactive)
REMARK    1  A    between atoms: C_1  and  C_2
REMARK    2  A    between atoms: C_2  and  C_3
REMARK    3  A    between atoms: C_3  and  C_4
REMARK    4  A    between atoms: C_4  and  O_5
REMARK    5  A    between atoms: O_5  and  C_6
REMARK    6  A    between atoms: C_6  and  C_7
REMARK    7  A    between atoms: C_7  and  O_8
REMARK                            x       y       z     vdW  Elec       q    Type
REMARK                         _______ _______ _______ _____ _____    ______ ____
ROOT
ATOM      1  O   UNL     1     -13.923   7.598  26.882  0.00  0.00    +0.000 OA
ENDROOT
BRANCH   1   2
ATOM      2  C   UNL     1     -13.696   6.468  26.042  0.00  0.00    +0.000 C 
BRANCH   2   3
ATOM      3  C   UNL     1     -12.656   5.541  26.667  0.00  0.00    +0.000 C 
BRANCH   3   5
ATOM      4  C   UNL     1     -11.122   6.649  24.948  0.00  0.00    +0.000 C 
ATOM      5  C   UNL     1     -11.259   5.608  26.049  0.00  0.00    +0.000 C 
ENDBRANCH   3   5
ENDBRANCH   2   3
ENDBRANCH   1   2
BRANCH   1   6
ATOM      6  C   UNL     1     -14.257   8.782  26.151  0.00  0.00    +0.000 C 
BRANCH   6   7
ATOM      7  C   UNL     1     -15.421   9.562  26.765  0.00  0.00    +0.000 C 
BRANCH   7   8
ATOM      8  O   UNL     1     -15.163   9.889  28.125  0.00  0.00    +0.000 OA
ATOM      9  H   UNL     1     -15.100   9.050  28.615  0.00  0.00    +0.000 HD
ENDBRANCH   7   8
ENDBRANCH   6   7
ENDBRANCH   1   6
TORSDOF 6
ENDMDL
MODEL 4
REMARK VINA RESULT:    -3.316      2.067      3.043
REMARK INTER + INTRA:          -4.450
REMARK INTER:                  -4.214
REMARK INTRA:                  -0.236
REMARK UNBOUND:                -0.068
REMARK  Name = C:\Users\sofiya chavarekar\OneDrive\Assignment- Module 1\PROJECT(AI-based drug target identification for SDH-related rare disorders)\Data\Ligands\PDB\Ligand_0100.pdb
REMARK  7 active torsions:
REMARK  status: ('A' for Active; 'I' for Inactive)
REMARK    1  A    between atoms: C_1  and  C_2
REMARK    2  A    between atoms: C_2  and  C_3
REMARK    3  A    between atoms: C_3  and  C_4
REMARK    4  A    between atoms: C_4  and  O_5
REMARK    5  A    between atoms: O_5  and  C_6
REMARK    6  A    between atoms: C_6  and  C_7
REMARK    7  A    between atoms: C_7  and  O_8
REMARK                            x       y       z     vdW  Elec       q    Type
REMARK                         _______ _______ _______ _____ _____    ______ ____
ROOT
ATOM      1  O   UNL     1     -13.428   6.711  27.144  0.00  0.00    +0.000 OA
ENDROOT
BRANCH   1   2
ATOM      2  C   UNL     1     -13.126   7.309  25.885  0.00  0.00    +0.000 C 
BRANCH   2   3
ATOM      3  C   UNL     1     -11.831   6.732  25.320  0.00  0.00    +0.000 C 
BRANCH   3   5
ATOM      4  C   UNL     1     -10.121   4.858  25.640  0.00  0.00    +0.000 C 
ATOM      5  C   UNL     1     -10.990   5.916  26.303  0.00  0.00    +0.000 C 
ENDBRANCH   3   5
ENDBRANCH   2   3
ENDBRANCH   1   2
BRANCH   1   6
ATOM      6  C   UNL     1     -14.744   6.151  27.198  0.00  0.00    +0.000 C 
BRANCH   6   7
ATOM      7  C   UNL     1     -14.848   4.786  26.515  0.00  0.00    +0.000 C 
BRANCH   7   8
ATOM      8  O   UNL     1     -13.819   3.909  26.957  0.00  0.00    +0.000 OA
ATOM      9  H   UNL     1     -13.489   4.256  27.805  0.00  0.00    +0.000 HD
ENDBRANCH   7   8
ENDBRANCH   6   7
ENDBRANCH   1   6
TORSDOF 6
ENDMDL
MODEL 5
REMARK VINA RESULT:    -3.290      1.914      4.488
REMARK INTER + INTRA:          -4.415
REMARK INTER:                  -4.196
REMARK INTRA:                  -0.219
REMARK UNBOUND:                -0.068
REMARK  Name = C:\Users\sofiya chavarekar\OneDrive\Assignment- Module 1\PROJECT(AI-based drug target identification for SDH-related rare disorders)\Data\Ligands\PDB\Ligand_0100.pdb
REMARK  7 active torsions:
REMARK  status: ('A' for Active; 'I' for Inactive)
REMARK    1  A    between atoms: C_1  and  C_2
REMARK    2  A    between atoms: C_2  and  C_3
REMARK    3  A    between atoms: C_3  and  C_4
REMARK    4  A    between atoms: C_4  and  O_5
REMARK    5  A    between atoms: O_5  and  C_6
REMARK    6  A    between atoms: C_6  and  C_7
REMARK    7  A    between atoms: C_7  and  O_8
REMARK                            x       y       z     vdW  Elec       q    Type
REMARK                         _______ _______ _______ _____ _____    ______ ____
ROOT
ATOM      1  O   UNL     1     -14.058   7.023  27.236  0.00  0.00    +0.000 OA
ENDROOT
BRANCH   1   2
ATOM      2  C   UNL     1     -15.443   7.018  26.893  0.00  0.00    +0.000 C 
BRANCH   2   3
ATOM      3  C   UNL     1     -15.851   8.368  26.307  0.00  0.00    +0.000 C 
BRANCH   3   5
ATOM      4  C   UNL     1     -15.186  10.772  25.744  0.00  0.00    +0.000 C 
ATOM      5  C   UNL     1     -14.849   9.505  26.516  0.00  0.00    +0.000 C 
ENDBRANCH   3   5
ENDBRANCH   2   3
ENDBRANCH   1   2
BRANCH   1   6
ATOM      6  C   UNL     1     -13.293   6.070  26.492  0.00  0.00    +0.000 C 
BRANCH   6   7
ATOM      7  C   UNL     1     -12.323   6.715  25.501  0.00  0.00    +0.000 C 
BRANCH   7   8
ATOM      8  O   UNL     1     -13.015   7.282  24.396  0.00  0.00    +0.000 OA
ATOM      9  H   UNL     1     -12.731   8.210  24.323  0.00  0.00    +0.000 HD
ENDBRANCH   7   8
ENDBRANCH   6   7
ENDBRANCH   1   6
TORSDOF 6
ENDMDL
MODEL 6
REMARK VINA RESULT:    -3.219      2.709      3.902
REMARK INTER + INTRA:          -4.322
REMARK INTER:                  -4.179
REMARK INTRA:                  -0.143
REMARK UNBOUND:                -0.068
REMARK  Name = C:\Users\sofiya chavarekar\OneDrive\Assignment- Module 1\PROJECT(AI-based drug target identification for SDH-related rare disorders)\Data\Ligands\PDB\Ligand_0100.pdb
REMARK  7 active torsions:
REMARK  status: ('A' for Active; 'I' for Inactive)
REMARK    1  A    between atoms: C_1  and  C_2
REMARK    2  A    between atoms: C_2  and  C_3
REMARK    3  A    between atoms: C_3  and  C_4
REMARK    4  A    between atoms: C_4  and  O_5
REMARK    5  A    between atoms: O_5  and  C_6
REMARK    6  A    between atoms: C_6  and  C_7
REMARK    7  A    between atoms: C_7  and  O_8
REMARK                            x       y       z     vdW  Elec       q    Type
REMARK                         _______ _______ _______ _____ _____    ______ ____
ROOT
ATOM      1  O   UNL     1     -13.448   6.424  27.307  0.00  0.00    +0.000 OA
ENDROOT
BRANCH   1   2
ATOM      2  C   UNL     1     -14.102   5.311  27.915  0.00  0.00    +0.000 C 
BRANCH   2   3
ATOM      3  C   UNL     1     -13.741   4.019  27.187  0.00  0.00    +0.000 C 
BRANCH   3   5
ATOM      4  C   UNL     1     -15.891   3.286  26.012  0.00  0.00    +0.000 C 
ATOM      5  C   UNL     1     -14.862   2.983  27.092  0.00  0.00    +0.000 C 
ENDBRANCH   3   5
ENDBRANCH   2   3
ENDBRANCH   1   2
BRANCH   1   6
ATOM      6  C   UNL     1     -12.254   6.058  26.609  0.00  0.00    +0.000 C 
BRANCH   6   7
ATOM      7  C   UNL     1     -12.106   6.760  25.257  0.00  0.00    +0.000 C 
BRANCH   7   8
ATOM      8  O   UNL     1     -13.371   6.965  24.642  0.00  0.00    +0.000 OA
ATOM      9  H   UNL     1     -13.276   6.731  23.702  0.00  0.00    +0.000 HD
ENDBRANCH   7   8
ENDBRANCH   6   7
ENDBRANCH   1   6
TORSDOF 6
ENDMDL
MODEL 7
REMARK VINA RESULT:    -3.105      2.784      3.728
REMARK INTER + INTRA:          -4.172
REMARK INTER:                  -4.117
REMARK INTRA:                  -0.055
REMARK UNBOUND:                -0.068
REMARK  Name = C:\Users\sofiya chavarekar\OneDrive\Assignment- Module 1\PROJECT(AI-based drug target identification for SDH-related rare disorders)\Data\Ligands\PDB\Ligand_0100.pdb
REMARK  7 active torsions:
REMARK  status: ('A' for Active; 'I' for Inactive)
REMARK    1  A    between atoms: C_1  and  C_2
REMARK    2  A    between atoms: C_2  and  C_3
REMARK    3  A    between atoms: C_3  and  C_4
REMARK    4  A    between atoms: C_4  and  O_5
REMARK    5  A    between atoms: O_5  and  C_6
REMARK    6  A    between atoms: C_6  and  C_7
REMARK    7  A    between atoms: C_7  and  O_8
REMARK                            x       y       z     vdW  Elec       q    Type
REMARK                         _______ _______ _______ _____ _____    ______ ____
ROOT
ATOM      1  O   UNL     1     -13.671   5.632  28.049  0.00  0.00    +0.000 OA
ENDROOT
BRANCH   1   2
ATOM      2  C   UNL     1     -13.019   5.223  26.848  0.00  0.00    +0.000 C 
BRANCH   2   3
ATOM      3  C   UNL     1     -12.548   6.442  26.058  0.00  0.00    +0.000 C 
BRANCH   3   5
ATOM      4  C   UNL     1     -10.400   5.070  25.856  0.00  0.00    +0.000 C 
ATOM      5  C   UNL     1     -11.148   6.332  25.452  0.00  0.00    +0.000 C 
ENDBRANCH   3   5
ENDBRANCH   2   3
ENDBRANCH   1   2
BRANCH   1   6
ATOM      6  C   UNL     1     -14.578   4.648  28.557  0.00  0.00    +0.000 C 
BRANCH   6   7
ATOM      7  C   UNL     1     -15.868   5.249  29.118  0.00  0.00    +0.000 C 
BRANCH   7   8
ATOM      8  O   UNL     1     -16.015   4.953  30.501  0.00  0.00    +0.000 OA
ATOM      9  H   UNL     1     -15.229   4.449  30.774  0.00  0.00    +0.000 HD
ENDBRANCH   7   8
ENDBRANCH   6   7
ENDBRANCH   1   6
TORSDOF 6
ENDMDL
MODEL 8
REMARK VINA RESULT:    -3.042      3.459      4.447
REMARK INTER + INTRA:          -4.088
REMARK INTER:                  -4.014
REMARK INTRA:                  -0.074
REMARK UNBOUND:                -0.068
REMARK  Name = C:\Users\sofiya chavarekar\OneDrive\Assignment- Module 1\PROJECT(AI-based drug target identification for SDH-related rare disorders)\Data\Ligands\PDB\Ligand_0100.pdb
REMARK  7 active torsions:
REMARK  status: ('A' for Active; 'I' for Inactive)
REMARK    1  A    between atoms: C_1  and  C_2
REMARK    2  A    between atoms: C_2  and  C_3
REMARK    3  A    between atoms: C_3  and  C_4
REMARK    4  A    between atoms: C_4  and  O_5
REMARK    5  A    between atoms: O_5  and  C_6
REMARK    6  A    between atoms: C_6  and  C_7
REMARK    7  A    between atoms: C_7  and  O_8
REMARK                            x       y       z     vdW  Elec       q    Type
REMARK                         _______ _______ _______ _____ _____    ______ ____
ROOT
ATOM      1  O   UNL     1     -14.077   3.665  26.862  0.00  0.00    +0.000 OA
ENDROOT
BRANCH   1   2
ATOM      2  C   UNL     1     -13.018   4.618  26.798  0.00  0.00    +0.000 C 
BRANCH   2   3
ATOM      3  C   UNL     1     -13.570   6.006  26.479  0.00  0.00    +0.000 C 
BRANCH   3   5
ATOM      4  C   UNL     1     -11.351   6.607  25.361  0.00  0.00    +0.000 C 
ATOM      5  C   UNL     1     -12.866   6.748  25.342  0.00  0.00    +0.000 C 
ENDBRANCH   3   5
ENDBRANCH   2   3
ENDBRANCH   1   2
BRANCH   1   6
ATOM      6  C   UNL     1     -15.220   4.044  26.089  0.00  0.00    +0.000 C 
BRANCH   6   7
ATOM      7  C   UNL     1     -16.260   2.930  25.963  0.00  0.00    +0.000 C 
BRANCH   7   8
ATOM      8  O   UNL     1     -16.431   2.535  24.607  0.00  0.00    +0.000 OA
ATOM      9  H   UNL     1     -15.973   3.193  24.055  0.00  0.00    +0.000 HD
ENDBRANCH   7   8
ENDBRANCH   6   7
ENDBRANCH   1   6
TORSDOF 6
ENDMDL
MODEL 9
REMARK VINA RESULT:    -2.940      3.168      4.568
REMARK INTER + INTRA:          -3.953
REMARK INTER:                  -3.841
REMARK INTRA:                  -0.112
REMARK UNBOUND:                -0.068
REMARK  Name = C:\Users\sofiya chavarekar\OneDrive\Assignment- Module 1\PROJECT(AI-based drug target identification for SDH-related rare disorders)\Data\Ligands\PDB\Ligand_0100.pdb
REMARK  7 active torsions:
REMARK  status: ('A' for Active; 'I' for Inactive)
REMARK    1  A    between atoms: C_1  and  C_2
REMARK    2  A    between atoms: C_2  and  C_3
REMARK    3  A    between atoms: C_3  and  C_4
REMARK    4  A    between atoms: C_4  and  O_5
REMARK    5  A    between atoms: O_5  and  C_6
REMARK    6  A    between atoms: C_6  and  C_7
REMARK    7  A    between atoms: C_7  and  O_8
REMARK                            x       y       z     vdW  Elec       q    Type
REMARK                         _______ _______ _______ _____ _____    ______ ____
ROOT
ATOM      1  O   UNL     1     -14.611   4.268  26.283  0.00  0.00    +0.000 OA
ENDROOT
BRANCH   1   2
ATOM      2  C   UNL     1     -13.964   5.430  26.798  0.00  0.00    +0.000 C 
BRANCH   2   3
ATOM      3  C   UNL     1     -13.523   6.342  25.656  0.00  0.00    +0.000 C 
BRANCH   3   5
ATOM      4  C   UNL     1     -11.174   5.476  26.179  0.00  0.00    +0.000 C 
ATOM      5  C   UNL     1     -12.015   6.576  25.546  0.00  0.00    +0.000 C 
ENDBRANCH   3   5
ENDBRANCH   2   3
ENDBRANCH   1   2
BRANCH   1   6
ATOM      6  C   UNL     1     -15.161   3.432  27.306  0.00  0.00    +0.000 C 
BRANCH   6   7
ATOM      7  C   UNL     1     -14.142   3.038  28.377  0.00  0.00    +0.000 C 
BRANCH   7   8
ATOM      8  O   UNL     1     -13.151   2.166  27.849  0.00  0.00    +0.000 OA
ATOM      9  H   UNL     1     -12.943   1.514  28.542  0.00  0.00    +0.000 HD
ENDBRANCH   7   8
ENDBRANCH   6   7
ENDBRANCH   1   6
TORSDOF 6
ENDMDL
