MODEL 1
REMARK VINA RESULT:    -4.122      0.000      0.000
REMARK INTER + INTRA:          -5.475
REMARK INTER:                  -5.206
REMARK INTRA:                  -0.269
REMARK UNBOUND:                -0.269
REMARK  Name = C:\Users\sofiya chavarekar\OneDrive\Assignment- Module 1\PROJECT(AI-based drug target identification for SDH-related rare disorders)\Data\Ligands\PDB\Ligand_0066.pdb
REMARK  8 active torsions:
REMARK  status: ('A' for Active; 'I' for Inactive)
REMARK    1  A    between atoms: C_1  and  C_2
REMARK    2  A    between atoms: C_2  and  C_3
REMARK    3  A    between atoms: C_3  and  C_4
REMARK    4  A    between atoms: C_4  and  C_5
REMARK    5  A    between atoms: C_5  and  C_6
REMARK    6  A    between atoms: C_5  and  O_7
REMARK    7  A    between atoms: C_5  and  C_8
REMARK    8  A    between atoms: C_8  and  C_9
REMARK                            x       y       z     vdW  Elec       q    Type
REMARK                         _______ _______ _______ _____ _____    ______ ____
ROOT
ATOM      1  C   UNL     1     -13.299   6.299  26.295  0.00  0.00    +0.000 C 
ATOM      2  C   UNL     1     -13.154   7.086  24.986  0.00  0.00    +0.000 C 
ENDROOT
BRANCH   1   3
ATOM      3  O   UNL     1     -13.904   7.161  27.263  0.00  0.00    +0.000 OA
ATOM      4  H   UNL     1     -13.417   7.062  28.099  0.00  0.00    +0.000 HD
ENDBRANCH   1   3
BRANCH   1   5
ATOM      5  C   UNL     1     -14.213   5.067  26.115  0.00  0.00    +0.000 C 
ATOM      6  C   UNL     1     -13.868   3.877  27.008  0.00  0.00    +0.000 C 
ENDBRANCH   1   5
BRANCH   1   7
ATOM      7  C   UNL     1     -11.889   5.896  26.799  0.00  0.00    +0.000 C 
BRANCH   7   8
ATOM      8  C   UNL     1     -10.843   5.688  25.695  0.00  0.00    +0.000 C 
BRANCH   8  10
ATOM      9  C   UNL     1      -9.256   3.988  24.718  0.00  0.00    +0.000 C 
ATOM     10  C   UNL     1      -9.966   4.465  25.977  0.00  0.00    +0.000 C 
ENDBRANCH   8  10
ENDBRANCH   7   8
ENDBRANCH   1   7
TORSDOF 5
ENDMDL
MODEL 2
REMARK VINA RESULT:    -4.113      1.610      2.348
REMARK INTER + INTRA:          -5.464
REMARK INTER:                  -5.310
REMARK INTRA:                  -0.153
REMARK UNBOUND:                -0.269
REMARK  Name = C:\Users\sofiya chavarekar\OneDrive\Assignment- Module 1\PROJECT(AI-based drug target identification for SDH-related rare disorders)\Data\Ligands\PDB\Ligand_0066.pdb
REMARK  8 active torsions:
REMARK  status: ('A' for Active; 'I' for Inactive)
REMARK    1  A    between atoms: C_1  and  C_2
REMARK    2  A    between atoms: C_2  and  C_3
REMARK    3  A    between atoms: C_3  and  C_4
REMARK    4  A    between atoms: C_4  and  C_5
REMARK    5  A    between atoms: C_5  and  C_6
REMARK    6  A    between atoms: C_5  and  O_7
REMARK    7  A    between atoms: C_5  and  C_8
REMARK    8  A    between atoms: C_8  and  C_9
REMARK                            x       y       z     vdW  Elec       q    Type
REMARK                         _______ _______ _______ _____ _____    ______ ____
ROOT
ATOM      1  C   UNL     1     -13.336   6.600  25.795  0.00  0.00    +0.000 C 
ATOM      2  C   UNL     1     -13.580   5.510  26.846  0.00  0.00    +0.000 C 
ENDROOT
BRANCH   1   3
ATOM      3  O   UNL     1     -14.098   6.268  24.631  0.00  0.00    +0.000 OA
ATOM      4  H   UNL     1     -14.906   6.810  24.637  0.00  0.00    +0.000 HD
ENDBRANCH   1   3
BRANCH   1   5
ATOM      5  C   UNL     1     -13.805   7.984  26.296  0.00  0.00    +0.000 C 
ATOM      6  C   UNL     1     -15.318   8.189  26.287  0.00  0.00    +0.000 C 
ENDBRANCH   1   5
BRANCH   1   7
ATOM      7  C   UNL     1     -11.831   6.608  25.419  0.00  0.00    +0.000 C 
BRANCH   7   8
ATOM      8  C   UNL     1     -10.946   5.692  26.276  0.00  0.00    +0.000 C 
BRANCH   8  10
ATOM      9  C   UNL     1      -9.577   3.580  26.127  0.00  0.00    +0.000 C 
ATOM     10  C   UNL     1     -10.005   4.852  25.409  0.00  0.00    +0.000 C 
ENDBRANCH   8  10
ENDBRANCH   7   8
ENDBRANCH   1   7
TORSDOF 5
ENDMDL
MODEL 3
REMARK VINA RESULT:    -3.929      1.554      3.512
REMARK INTER + INTRA:          -5.232
REMARK INTER:                  -4.795
REMARK INTRA:                  -0.437
REMARK UNBOUND:                -0.269
REMARK  Name = C:\Users\sofiya chavarekar\OneDrive\Assignment- Module 1\PROJECT(AI-based drug target identification for SDH-related rare disorders)\Data\Ligands\PDB\Ligand_0066.pdb
REMARK  8 active torsions:
REMARK  status: ('A' for Active; 'I' for Inactive)
REMARK    1  A    between atoms: C_1  and  C_2
REMARK    2  A    between atoms: C_2  and  C_3
REMARK    3  A    between atoms: C_3  and  C_4
REMARK    4  A    between atoms: C_4  and  C_5
REMARK    5  A    between atoms: C_5  and  C_6
REMARK    6  A    between atoms: C_5  and  O_7
REMARK    7  A    between atoms: C_5  and  C_8
REMARK    8  A    between atoms: C_8  and  C_9
REMARK                            x       y       z     vdW  Elec       q    Type
REMARK                         _______ _______ _______ _____ _____    ______ ____
ROOT
ATOM      1  C   UNL     1     -13.301   6.894  25.711  0.00  0.00    +0.000 C 
ATOM      2  C   UNL     1     -14.074   8.052  26.358  0.00  0.00    +0.000 C 
ENDROOT
BRANCH   1   3
ATOM      3  O   UNL     1     -13.071   7.230  24.340  0.00  0.00    +0.000 OA
ATOM      4  H   UNL     1     -13.659   6.679  23.795  0.00  0.00    +0.000 HD
ENDBRANCH   1   3
BRANCH   1   5
ATOM      5  C   UNL     1     -11.929   6.684  26.389  0.00  0.00    +0.000 C 
ATOM      6  C   UNL     1     -11.095   5.545  25.807  0.00  0.00    +0.000 C 
ENDBRANCH   1   5
BRANCH   1   7
ATOM      7  C   UNL     1     -14.171   5.613  25.772  0.00  0.00    +0.000 C 
BRANCH   7   8
ATOM      8  C   UNL     1     -15.043   5.482  27.029  0.00  0.00    +0.000 C 
BRANCH   8  10
ATOM      9  C   UNL     1     -13.742   3.358  27.422  0.00  0.00    +0.000 C 
ATOM     10  C   UNL     1     -14.390   4.572  28.072  0.00  0.00    +0.000 C 
ENDBRANCH   8  10
ENDBRANCH   7   8
ENDBRANCH   1   7
TORSDOF 5
ENDMDL
MODEL 4
REMARK VINA RESULT:    -3.909      1.224      1.948
REMARK INTER + INTRA:          -5.207
REMARK INTER:                  -4.822
REMARK INTRA:                  -0.385
REMARK UNBOUND:                -0.269
REMARK  Name = C:\Users\sofiya chavarekar\OneDrive\Assignment- Module 1\PROJECT(AI-based drug target identification for SDH-related rare disorders)\Data\Ligands\PDB\Ligand_0066.pdb
REMARK  8 active torsions:
REMARK  status: ('A' for Active; 'I' for Inactive)
REMARK    1  A    between atoms: C_1  and  C_2
REMARK    2  A    between atoms: C_2  and  C_3
REMARK    3  A    between atoms: C_3  and  C_4
REMARK    4  A    between atoms: C_4  and  C_5
REMARK    5  A    between atoms: C_5  and  C_6
REMARK    6  A    between atoms: C_5  and  O_7
REMARK    7  A    between atoms: C_5  and  C_8
REMARK    8  A    between atoms: C_8  and  C_9
REMARK                            x       y       z     vdW  Elec       q    Type
REMARK                         _______ _______ _______ _____ _____    ______ ____
ROOT
ATOM      1  C   UNL     1     -14.413   5.795  26.646  0.00  0.00    +0.000 C 
ATOM      2  C   UNL     1     -15.711   6.591  26.837  0.00  0.00    +0.000 C 
ENDROOT
BRANCH   1   3
ATOM      3  O   UNL     1     -13.622   5.955  27.826  0.00  0.00    +0.000 OA
ATOM      4  H   UNL     1     -12.697   5.759  27.596  0.00  0.00    +0.000 HD
ENDBRANCH   1   3
BRANCH   1   5
ATOM      5  C   UNL     1     -14.697   4.288  26.461  0.00  0.00    +0.000 C 
ATOM      6  C   UNL     1     -13.858   3.365  27.341  0.00  0.00    +0.000 C 
ENDBRANCH   1   5
BRANCH   1   7
ATOM      7  C   UNL     1     -13.636   6.382  25.440  0.00  0.00    +0.000 C 
BRANCH   7   8
ATOM      8  C   UNL     1     -12.284   7.020  25.791  0.00  0.00    +0.000 C 
BRANCH   8  10
ATOM      9  C   UNL     1     -10.657   5.104  25.993  0.00  0.00    +0.000 C 
ATOM     10  C   UNL     1     -11.123   6.270  25.132  0.00  0.00    +0.000 C 
ENDBRANCH   8  10
ENDBRANCH   7   8
ENDBRANCH   1   7
TORSDOF 5
ENDMDL
MODEL 5
REMARK VINA RESULT:    -3.803      1.798      4.434
REMARK INTER + INTRA:          -5.073
REMARK INTER:                  -4.742
REMARK INTRA:                  -0.331
REMARK UNBOUND:                -0.269
REMARK  Name = C:\Users\sofiya chavarekar\OneDrive\Assignment- Module 1\PROJECT(AI-based drug target identification for SDH-related rare disorders)\Data\Ligands\PDB\Ligand_0066.pdb
REMARK  8 active torsions:
REMARK  status: ('A' for Active; 'I' for Inactive)
REMARK    1  A    between atoms: C_1  and  C_2
REMARK    2  A    between atoms: C_2  and  C_3
REMARK    3  A    between atoms: C_3  and  C_4
REMARK    4  A    between atoms: C_4  and  C_5
REMARK    5  A    between atoms: C_5  and  C_6
REMARK    6  A    between atoms: C_5  and  O_7
REMARK    7  A    between atoms: C_5  and  C_8
REMARK    8  A    between atoms: C_8  and  C_9
REMARK                            x       y       z     vdW  Elec       q    Type
REMARK                         _______ _______ _______ _____ _____    ______ ____
ROOT
ATOM      1  C   UNL     1     -13.006   5.742  26.491  0.00  0.00    +0.000 C 
ATOM      2  C   UNL     1     -13.784   4.420  26.538  0.00  0.00    +0.000 C 
ENDROOT
BRANCH   1   3
ATOM      3  O   UNL     1     -12.973   6.281  27.815  0.00  0.00    +0.000 OA
ATOM      4  H   UNL     1     -13.668   6.959  27.880  0.00  0.00    +0.000 HD
ENDBRANCH   1   3
BRANCH   1   5
ATOM      5  C   UNL     1     -11.549   5.524  26.027  0.00  0.00    +0.000 C 
ATOM      6  C   UNL     1     -11.041   6.542  25.009  0.00  0.00    +0.000 C 
ENDBRANCH   1   5
BRANCH   1   7
ATOM      7  C   UNL     1     -13.758   6.735  25.566  0.00  0.00    +0.000 C 
BRANCH   7   8
ATOM      8  C   UNL     1     -14.310   7.983  26.270  0.00  0.00    +0.000 C 
BRANCH   8  10
ATOM      9  C   UNL     1     -16.494   7.056  27.125  0.00  0.00    +0.000 C 
ATOM     10  C   UNL     1     -15.836   8.048  26.176  0.00  0.00    +0.000 C 
ENDBRANCH   8  10
ENDBRANCH   7   8
ENDBRANCH   1   7
TORSDOF 5
ENDMDL
MODEL 6
REMARK VINA RESULT:    -3.719      2.807      4.105
REMARK INTER + INTRA:          -4.966
REMARK INTER:                  -4.770
REMARK INTRA:                  -0.196
REMARK UNBOUND:                -0.269
REMARK  Name = C:\Users\sofiya chavarekar\OneDrive\Assignment- Module 1\PROJECT(AI-based drug target identification for SDH-related rare disorders)\Data\Ligands\PDB\Ligand_0066.pdb
REMARK  8 active torsions:
REMARK  status: ('A' for Active; 'I' for Inactive)
REMARK    1  A    between atoms: C_1  and  C_2
REMARK    2  A    between atoms: C_2  and  C_3
REMARK    3  A    between atoms: C_3  and  C_4
REMARK    4  A    between atoms: C_4  and  C_5
REMARK    5  A    between atoms: C_5  and  C_6
REMARK    6  A    between atoms: C_5  and  O_7
REMARK    7  A    between atoms: C_5  and  C_8
REMARK    8  A    between atoms: C_8  and  C_9
REMARK                            x       y       z     vdW  Elec       q    Type
REMARK                         _______ _______ _______ _____ _____    ______ ____
ROOT
ATOM      1  C   UNL     1     -15.636   8.339  26.537  0.00  0.00    +0.000 C 
ATOM      2  C   UNL     1     -16.449   8.314  27.838  0.00  0.00    +0.000 C 
ENDROOT
BRANCH   1   3
ATOM      3  O   UNL     1     -16.540   8.590  25.458  0.00  0.00    +0.000 OA
ATOM      4  H   UNL     1     -16.014   8.739  24.654  0.00  0.00    +0.000 HD
ENDBRANCH   1   3
BRANCH   1   5
ATOM      5  C   UNL     1     -14.583   9.469  26.551  0.00  0.00    +0.000 C 
ATOM      6  C   UNL     1     -15.012  10.754  25.848  0.00  0.00    +0.000 C 
ENDBRANCH   1   5
BRANCH   1   7
ATOM      7  C   UNL     1     -14.981   6.950  26.326  0.00  0.00    +0.000 C 
BRANCH   7   8
ATOM      8  C   UNL     1     -13.637   6.973  25.584  0.00  0.00    +0.000 C 
BRANCH   8  10
ATOM      9  C   UNL     1     -11.236   6.206  25.639  0.00  0.00    +0.000 C 
ATOM     10  C   UNL     1     -12.629   6.014  26.221  0.00  0.00    +0.000 C 
ENDBRANCH   8  10
ENDBRANCH   7   8
ENDBRANCH   1   7
TORSDOF 5
ENDMDL
MODEL 7
REMARK VINA RESULT:    -3.570      2.382      4.552
REMARK INTER + INTRA:          -4.778
REMARK INTER:                  -4.622
REMARK INTRA:                  -0.156
REMARK UNBOUND:                -0.269
REMARK  Name = C:\Users\sofiya chavarekar\OneDrive\Assignment- Module 1\PROJECT(AI-based drug target identification for SDH-related rare disorders)\Data\Ligands\PDB\Ligand_0066.pdb
REMARK  8 active torsions:
REMARK  status: ('A' for Active; 'I' for Inactive)
REMARK    1  A    between atoms: C_1  and  C_2
REMARK    2  A    between atoms: C_2  and  C_3
REMARK    3  A    between atoms: C_3  and  C_4
REMARK    4  A    between atoms: C_4  and  C_5
REMARK    5  A    between atoms: C_5  and  C_6
REMARK    6  A    between atoms: C_5  and  O_7
REMARK    7  A    between atoms: C_5  and  C_8
REMARK    8  A    between atoms: C_8  and  C_9
REMARK                            x       y       z     vdW  Elec       q    Type
REMARK                         _______ _______ _______ _____ _____    ______ ____
ROOT
ATOM      1  C   UNL     1     -13.572   6.479  25.892  0.00  0.00    +0.000 C 
ATOM      2  C   UNL     1     -12.144   6.264  26.409  0.00  0.00    +0.000 C 
ENDROOT
BRANCH   1   3
ATOM      3  O   UNL     1     -13.496   6.763  24.492  0.00  0.00    +0.000 OA
ATOM      4  H   UNL     1     -13.870   7.649  24.345  0.00  0.00    +0.000 HD
ENDBRANCH   1   3
BRANCH   1   5
ATOM      5  C   UNL     1     -14.436   5.212  26.076  0.00  0.00    +0.000 C 
ATOM      6  C   UNL     1     -13.799   4.121  26.932  0.00  0.00    +0.000 C 
ENDBRANCH   1   5
BRANCH   1   7
ATOM      7  C   UNL     1     -14.191   7.703  26.616  0.00  0.00    +0.000 C 
BRANCH   7   8
ATOM      8  C   UNL     1     -15.649   8.007  26.243  0.00  0.00    +0.000 C 
BRANCH   8  10
ATOM      9  C   UNL     1     -15.016  10.395  25.741  0.00  0.00    +0.000 C 
ATOM     10  C   UNL     1     -15.989   9.482  26.471  0.00  0.00    +0.000 C 
ENDBRANCH   8  10
ENDBRANCH   7   8
ENDBRANCH   1   7
TORSDOF 5
ENDMDL
MODEL 8
REMARK VINA RESULT:    -3.068      2.634      3.311
REMARK INTER + INTRA:          -4.144
REMARK INTER:                  -4.014
REMARK INTRA:                  -0.130
REMARK UNBOUND:                -0.269
REMARK  Name = C:\Users\sofiya chavarekar\OneDrive\Assignment- Module 1\PROJECT(AI-based drug target identification for SDH-related rare disorders)\Data\Ligands\PDB\Ligand_0066.pdb
REMARK  8 active torsions:
REMARK  status: ('A' for Active; 'I' for Inactive)
REMARK    1  A    between atoms: C_1  and  C_2
REMARK    2  A    between atoms: C_2  and  C_3
REMARK    3  A    between atoms: C_3  and  C_4
REMARK    4  A    between atoms: C_4  and  C_5
REMARK    5  A    between atoms: C_5  and  C_6
REMARK    6  A    between atoms: C_5  and  O_7
REMARK    7  A    between atoms: C_5  and  C_8
REMARK    8  A    between atoms: C_8  and  C_9
REMARK                            x       y       z     vdW  Elec       q    Type
REMARK                         _______ _______ _______ _____ _____    ______ ____
ROOT
ATOM      1  C   UNL     1     -15.686   8.043  27.097  0.00  0.00    +0.000 C 
ATOM      2  C   UNL     1     -16.503   8.533  25.894  0.00  0.00    +0.000 C 
ENDROOT
BRANCH   1   3
ATOM      3  O   UNL     1     -14.924   9.147  27.591  0.00  0.00    +0.000 OA
ATOM      4  H   UNL     1     -15.389   9.511  28.363  0.00  0.00    +0.000 HD
ENDBRANCH   1   3
BRANCH   1   5
ATOM      5  C   UNL     1     -16.602   7.546  28.237  0.00  0.00    +0.000 C 
ATOM      6  C   UNL     1     -16.819   6.035  28.272  0.00  0.00    +0.000 C 
ENDBRANCH   1   5
BRANCH   1   7
ATOM      7  C   UNL     1     -14.711   6.935  26.624  0.00  0.00    +0.000 C 
BRANCH   7   8
ATOM      8  C   UNL     1     -13.278   7.411  26.341  0.00  0.00    +0.000 C 
BRANCH   8  10
ATOM      9  C   UNL     1     -11.145   6.097  26.055  0.00  0.00    +0.000 C 
ATOM     10  C   UNL     1     -12.516   6.408  25.472  0.00  0.00    +0.000 C 
ENDBRANCH   8  10
ENDBRANCH   7   8
ENDBRANCH   1   7
TORSDOF 5
ENDMDL
MODEL 9
REMARK VINA RESULT:    -2.995      2.108      3.170
REMARK INTER + INTRA:          -4.052
REMARK INTER:                  -3.879
REMARK INTRA:                  -0.173
REMARK UNBOUND:                -0.269
REMARK  Name = C:\Users\sofiya chavarekar\OneDrive\Assignment- Module 1\PROJECT(AI-based drug target identification for SDH-related rare disorders)\Data\Ligands\PDB\Ligand_0066.pdb
REMARK  8 active torsions:
REMARK  status: ('A' for Active; 'I' for Inactive)
REMARK    1  A    between atoms: C_1  and  C_2
REMARK    2  A    between atoms: C_2  and  C_3
REMARK    3  A    between atoms: C_3  and  C_4
REMARK    4  A    between atoms: C_4  and  C_5
REMARK    5  A    between atoms: C_5  and  C_6
REMARK    6  A    between atoms: C_5  and  O_7
REMARK    7  A    between atoms: C_5  and  C_8
REMARK    8  A    between atoms: C_8  and  C_9
REMARK                            x       y       z     vdW  Elec       q    Type
REMARK                         _______ _______ _______ _____ _____    ______ ____
ROOT
ATOM      1  C   UNL     1     -15.170   4.607  27.482  0.00  0.00    +0.000 C 
ATOM      2  C   UNL     1     -15.302   3.572  28.607  0.00  0.00    +0.000 C 
ENDROOT
BRANCH   1   3
ATOM      3  O   UNL     1     -15.275   3.918  26.234  0.00  0.00    +0.000 OA
ATOM      4  H   UNL     1     -14.616   4.295  25.627  0.00  0.00    +0.000 HD
ENDBRANCH   1   3
BRANCH   1   5
ATOM      5  C   UNL     1     -16.303   5.656  27.546  0.00  0.00    +0.000 C 
ATOM      6  C   UNL     1     -15.973   6.996  26.893  0.00  0.00    +0.000 C 
ENDBRANCH   1   5
BRANCH   1   7
ATOM      7  C   UNL     1     -13.772   5.270  27.570  0.00  0.00    +0.000 C 
BRANCH   7   8
ATOM      8  C   UNL     1     -12.755   4.776  26.532  0.00  0.00    +0.000 C 
BRANCH   8  10
ATOM      9  C   UNL     1     -10.367   5.148  25.813  0.00  0.00    +0.000 C 
ATOM     10  C   UNL     1     -11.651   5.809  26.293  0.00  0.00    +0.000 C 
ENDBRANCH   8  10
ENDBRANCH   7   8
ENDBRANCH   1   7
TORSDOF 5
ENDMDL
