MODEL 1
REMARK VINA RESULT:    -3.349      0.000      0.000
REMARK INTER + INTRA:          -3.643
REMARK INTER:                  -3.643
REMARK INTRA:                   0.000
REMARK UNBOUND:                 0.000
REMARK  Name = C:\Users\sofiya chavarekar\OneDrive\Assignment- Module 1\PROJECT(AI-based drug target identification for SDH-related rare disorders)\Data\Ligands\PDB\Ligand_0061.pdb
REMARK  6 active torsions:
REMARK  status: ('A' for Active; 'I' for Inactive)
REMARK    1  A    between atoms: C_1  and  C_2
REMARK    2  A    between atoms: C_2  and  O_3
REMARK    3  A    between atoms: C_2  and  C_4
REMARK    4  A    between atoms: C_4  and  C_5
REMARK    5  A    between atoms: C_4  and  C_6
REMARK    6  A    between atoms: C_4  and  C_7
REMARK                            x       y       z     vdW  Elec       q    Type
REMARK                         _______ _______ _______ _____ _____    ______ ____
ROOT
ATOM      1  C   UNL     1     -11.619  -0.963  28.408  0.00  0.00    +0.000 C 
ATOM      2  C   UNL     1     -12.833  -0.974  29.337  0.00  0.00    +0.000 C 
ENDROOT
BRANCH   2   3
ATOM      3  C   UNL     1     -14.080  -0.206  28.808  0.00  0.00    +0.000 C 
ATOM      4  C   UNL     1     -14.653  -0.891  27.553  0.00  0.00    +0.000 C 
ATOM      5  C   UNL     1     -15.176  -0.207  29.895  0.00  0.00    +0.000 C 
ATOM      6  C   UNL     1     -13.748   1.260  28.470  0.00  0.00    +0.000 C 
ENDBRANCH   2   3
BRANCH   2   7
ATOM      7  O   UNL     1     -12.428  -0.421  30.591  0.00  0.00    +0.000 OA
ATOM      8  H   UNL     1     -13.020   0.325  30.792  0.00  0.00    +0.000 HD
ENDBRANCH   2   7
TORSDOF 2
ENDMDL
MODEL 2
REMARK VINA RESULT:    -3.275      6.289      6.888
REMARK INTER + INTRA:          -3.563
REMARK INTER:                  -3.563
REMARK INTRA:                   0.000
REMARK UNBOUND:                 0.000
REMARK  Name = C:\Users\sofiya chavarekar\OneDrive\Assignment- Module 1\PROJECT(AI-based drug target identification for SDH-related rare disorders)\Data\Ligands\PDB\Ligand_0061.pdb
REMARK  6 active torsions:
REMARK  status: ('A' for Active; 'I' for Inactive)
REMARK    1  A    between atoms: C_1  and  C_2
REMARK    2  A    between atoms: C_2  and  O_3
REMARK    3  A    between atoms: C_2  and  C_4
REMARK    4  A    between atoms: C_4  and  C_5
REMARK    5  A    between atoms: C_4  and  C_6
REMARK    6  A    between atoms: C_4  and  C_7
REMARK                            x       y       z     vdW  Elec       q    Type
REMARK                         _______ _______ _______ _____ _____    ______ ____
ROOT
ATOM      1  C   UNL     1     -11.984   5.600  26.114  0.00  0.00    +0.000 C 
ATOM      2  C   UNL     1     -13.316   6.350  26.126  0.00  0.00    +0.000 C 
ENDROOT
BRANCH   2   3
ATOM      3  C   UNL     1     -14.494   5.600  26.817  0.00  0.00    +0.000 C 
ATOM      4  C   UNL     1     -14.859   4.321  26.040  0.00  0.00    +0.000 C 
ATOM      5  C   UNL     1     -14.068   5.190  28.243  0.00  0.00    +0.000 C 
ATOM      6  C   UNL     1     -15.747   6.488  26.933  0.00  0.00    +0.000 C 
ENDBRANCH   2   3
BRANCH   2   7
ATOM      7  O   UNL     1     -13.665   6.643  24.772  0.00  0.00    +0.000 OA
ATOM      8  H   UNL     1     -14.633   6.733  24.727  0.00  0.00    +0.000 HD
ENDBRANCH   2   7
TORSDOF 2
ENDMDL
MODEL 3
REMARK VINA RESULT:    -3.252      6.528      7.300
REMARK INTER + INTRA:          -3.537
REMARK INTER:                  -3.537
REMARK INTRA:                   0.000
REMARK UNBOUND:                 0.000
REMARK  Name = C:\Users\sofiya chavarekar\OneDrive\Assignment- Module 1\PROJECT(AI-based drug target identification for SDH-related rare disorders)\Data\Ligands\PDB\Ligand_0061.pdb
REMARK  6 active torsions:
REMARK  status: ('A' for Active; 'I' for Inactive)
REMARK    1  A    between atoms: C_1  and  C_2
REMARK    2  A    between atoms: C_2  and  O_3
REMARK    3  A    between atoms: C_2  and  C_4
REMARK    4  A    between atoms: C_4  and  C_5
REMARK    5  A    between atoms: C_4  and  C_6
REMARK    6  A    between atoms: C_4  and  C_7
REMARK                            x       y       z     vdW  Elec       q    Type
REMARK                         _______ _______ _______ _____ _____    ______ ____
ROOT
ATOM      1  C   UNL     1     -11.665   5.876  25.915  0.00  0.00    +0.000 C 
ATOM      2  C   UNL     1     -12.989   6.636  25.982  0.00  0.00    +0.000 C 
ENDROOT
BRANCH   2   3
ATOM      3  C   UNL     1     -14.137   5.904  26.737  0.00  0.00    +0.000 C 
ATOM      4  C   UNL     1     -13.657   5.406  28.113  0.00  0.00    +0.000 C 
ATOM      5  C   UNL     1     -15.304   6.888  26.964  0.00  0.00    +0.000 C 
ATOM      6  C   UNL     1     -14.677   4.705  25.933  0.00  0.00    +0.000 C 
ENDBRANCH   2   3
BRANCH   2   7
ATOM      7  O   UNL     1     -13.401   6.916  24.642  0.00  0.00    +0.000 OA
ATOM      8  H   UNL     1     -14.316   6.603  24.541  0.00  0.00    +0.000 HD
ENDBRANCH   2   7
TORSDOF 2
ENDMDL
MODEL 4
REMARK VINA RESULT:    -3.148      6.210      7.342
REMARK INTER + INTRA:          -3.424
REMARK INTER:                  -3.424
REMARK INTRA:                   0.000
REMARK UNBOUND:                 0.000
REMARK  Name = C:\Users\sofiya chavarekar\OneDrive\Assignment- Module 1\PROJECT(AI-based drug target identification for SDH-related rare disorders)\Data\Ligands\PDB\Ligand_0061.pdb
REMARK  6 active torsions:
REMARK  status: ('A' for Active; 'I' for Inactive)
REMARK    1  A    between atoms: C_1  and  C_2
REMARK    2  A    between atoms: C_2  and  O_3
REMARK    3  A    between atoms: C_2  and  C_4
REMARK    4  A    between atoms: C_4  and  C_5
REMARK    5  A    between atoms: C_4  and  C_6
REMARK    6  A    between atoms: C_4  and  C_7
REMARK                            x       y       z     vdW  Elec       q    Type
REMARK                         _______ _______ _______ _____ _____    ______ ____
ROOT
ATOM      1  C   UNL     1     -14.544   7.898  26.506  0.00  0.00    +0.000 C 
ATOM      2  C   UNL     1     -14.497   6.578  25.737  0.00  0.00    +0.000 C 
ENDROOT
BRANCH   2   3
ATOM      3  C   UNL     1     -14.158   5.322  26.593  0.00  0.00    +0.000 C 
ATOM      4  C   UNL     1     -14.924   4.088  26.082  0.00  0.00    +0.000 C 
ATOM      5  C   UNL     1     -12.646   5.027  26.484  0.00  0.00    +0.000 C 
ATOM      6  C   UNL     1     -14.493   5.538  28.081  0.00  0.00    +0.000 C 
ENDBRANCH   2   3
BRANCH   2   7
ATOM      7  O   UNL     1     -13.533   6.717  24.690  0.00  0.00    +0.000 OA
ATOM      8  H   UNL     1     -13.840   7.424  24.097  0.00  0.00    +0.000 HD
ENDBRANCH   2   7
TORSDOF 2
ENDMDL
MODEL 5
REMARK VINA RESULT:    -3.147      6.215      7.369
REMARK INTER + INTRA:          -3.423
REMARK INTER:                  -3.423
REMARK INTRA:                   0.000
REMARK UNBOUND:                 0.000
REMARK  Name = C:\Users\sofiya chavarekar\OneDrive\Assignment- Module 1\PROJECT(AI-based drug target identification for SDH-related rare disorders)\Data\Ligands\PDB\Ligand_0061.pdb
REMARK  6 active torsions:
REMARK  status: ('A' for Active; 'I' for Inactive)
REMARK    1  A    between atoms: C_1  and  C_2
REMARK    2  A    between atoms: C_2  and  O_3
REMARK    3  A    between atoms: C_2  and  C_4
REMARK    4  A    between atoms: C_4  and  C_5
REMARK    5  A    between atoms: C_4  and  C_6
REMARK    6  A    between atoms: C_4  and  C_7
REMARK                            x       y       z     vdW  Elec       q    Type
REMARK                         _______ _______ _______ _____ _____    ______ ____
ROOT
ATOM      1  C   UNL     1     -14.549   7.896  26.502  0.00  0.00    +0.000 C 
ATOM      2  C   UNL     1     -14.501   6.572  25.740  0.00  0.00    +0.000 C 
ENDROOT
BRANCH   2   3
ATOM      3  C   UNL     1     -14.128   5.326  26.597  0.00  0.00    +0.000 C 
ATOM      4  C   UNL     1     -14.512   5.541  28.072  0.00  0.00    +0.000 C 
ATOM      5  C   UNL     1     -14.905   4.099  26.073  0.00  0.00    +0.000 C 
ATOM      6  C   UNL     1     -12.623   5.006  26.513  0.00  0.00    +0.000 C 
ENDBRANCH   2   3
BRANCH   2   7
ATOM      7  O   UNL     1     -13.563   6.716  24.672  0.00  0.00    +0.000 OA
ATOM      8  H   UNL     1     -12.670   6.689  25.056  0.00  0.00    +0.000 HD
ENDBRANCH   2   7
TORSDOF 2
ENDMDL
MODEL 6
REMARK VINA RESULT:    -2.905      8.261      9.631
REMARK INTER + INTRA:          -3.160
REMARK INTER:                  -3.160
REMARK INTRA:                   0.000
REMARK UNBOUND:                 0.000
REMARK  Name = C:\Users\sofiya chavarekar\OneDrive\Assignment- Module 1\PROJECT(AI-based drug target identification for SDH-related rare disorders)\Data\Ligands\PDB\Ligand_0061.pdb
REMARK  6 active torsions:
REMARK  status: ('A' for Active; 'I' for Inactive)
REMARK    1  A    between atoms: C_1  and  C_2
REMARK    2  A    between atoms: C_2  and  O_3
REMARK    3  A    between atoms: C_2  and  C_4
REMARK    4  A    between atoms: C_4  and  C_5
REMARK    5  A    between atoms: C_4  and  C_6
REMARK    6  A    between atoms: C_4  and  C_7
REMARK                            x       y       z     vdW  Elec       q    Type
REMARK                         _______ _______ _______ _____ _____    ______ ____
ROOT
ATOM      1  C   UNL     1     -18.690  -1.560  23.085  0.00  0.00    +0.000 C 
ATOM      2  C   UNL     1     -18.545  -2.897  22.359  0.00  0.00    +0.000 C 
ENDROOT
BRANCH   2   3
ATOM      3  C   UNL     1     -19.870  -3.501  21.809  0.00  0.00    +0.000 C 
ATOM      4  C   UNL     1     -19.866  -5.036  21.935  0.00  0.00    +0.000 C 
ATOM      5  C   UNL     1     -21.057  -2.956  22.633  0.00  0.00    +0.000 C 
ATOM      6  C   UNL     1     -20.103  -3.122  20.334  0.00  0.00    +0.000 C 
ENDBRANCH   2   3
BRANCH   2   7
ATOM      7  O   UNL     1     -17.936  -3.821  23.263  0.00  0.00    +0.000 OA
ATOM      8  H   UNL     1     -16.983  -3.841  23.070  0.00  0.00    +0.000 HD
ENDBRANCH   2   7
TORSDOF 2
ENDMDL
MODEL 7
REMARK VINA RESULT:    -2.898      4.760      6.306
REMARK INTER + INTRA:          -3.152
REMARK INTER:                  -3.152
REMARK INTRA:                   0.000
REMARK UNBOUND:                 0.000
REMARK  Name = C:\Users\sofiya chavarekar\OneDrive\Assignment- Module 1\PROJECT(AI-based drug target identification for SDH-related rare disorders)\Data\Ligands\PDB\Ligand_0061.pdb
REMARK  6 active torsions:
REMARK  status: ('A' for Active; 'I' for Inactive)
REMARK    1  A    between atoms: C_1  and  C_2
REMARK    2  A    between atoms: C_2  and  O_3
REMARK    3  A    between atoms: C_2  and  C_4
REMARK    4  A    between atoms: C_4  and  C_5
REMARK    5  A    between atoms: C_4  and  C_6
REMARK    6  A    between atoms: C_4  and  C_7
REMARK                            x       y       z     vdW  Elec       q    Type
REMARK                         _______ _______ _______ _____ _____    ______ ____
ROOT
ATOM      1  C   UNL     1     -16.558  -0.393  31.792  0.00  0.00    +0.000 C 
ATOM      2  C   UNL     1     -17.775  -1.020  32.472  0.00  0.00    +0.000 C 
ENDROOT
BRANCH   2   3
ATOM      3  C   UNL     1     -19.154  -0.462  32.013  0.00  0.00    +0.000 C 
ATOM      4  C   UNL     1     -19.679   0.588  33.008  0.00  0.00    +0.000 C 
ATOM      5  C   UNL     1     -18.992   0.221  30.637  0.00  0.00    +0.000 C 
ATOM      6  C   UNL     1     -20.203  -1.581  31.867  0.00  0.00    +0.000 C 
ENDBRANCH   2   3
BRANCH   2   7
ATOM      7  O   UNL     1     -17.630  -0.836  33.882  0.00  0.00    +0.000 OA
ATOM      8  H   UNL     1     -17.424   0.102  34.039  0.00  0.00    +0.000 HD
ENDBRANCH   2   7
TORSDOF 2
ENDMDL
MODEL 8
REMARK VINA RESULT:    -2.863      4.419      5.894
REMARK INTER + INTRA:          -3.114
REMARK INTER:                  -3.114
REMARK INTRA:                   0.000
REMARK UNBOUND:                 0.000
REMARK  Name = C:\Users\sofiya chavarekar\OneDrive\Assignment- Module 1\PROJECT(AI-based drug target identification for SDH-related rare disorders)\Data\Ligands\PDB\Ligand_0061.pdb
REMARK  6 active torsions:
REMARK  status: ('A' for Active; 'I' for Inactive)
REMARK    1  A    between atoms: C_1  and  C_2
REMARK    2  A    between atoms: C_2  and  O_3
REMARK    3  A    between atoms: C_2  and  C_4
REMARK    4  A    between atoms: C_4  and  C_5
REMARK    5  A    between atoms: C_4  and  C_6
REMARK    6  A    between atoms: C_4  and  C_7
REMARK                            x       y       z     vdW  Elec       q    Type
REMARK                         _______ _______ _______ _____ _____    ______ ____
ROOT
ATOM      1  C   UNL     1     -19.757  -1.065  29.780  0.00  0.00    +0.000 C 
ATOM      2  C   UNL     1     -19.012  -1.514  31.037  0.00  0.00    +0.000 C 
ENDROOT
BRANCH   2   3
ATOM      3  C   UNL     1     -18.031  -0.464  31.637  0.00  0.00    +0.000 C 
ATOM      4  C   UNL     1     -18.636   0.950  31.574  0.00  0.00    +0.000 C 
ATOM      5  C   UNL     1     -17.766  -0.806  33.119  0.00  0.00    +0.000 C 
ATOM      6  C   UNL     1     -16.677  -0.461  30.902  0.00  0.00    +0.000 C 
ENDBRANCH   2   3
BRANCH   2   7
ATOM      7  O   UNL     1     -18.296  -2.709  30.717  0.00  0.00    +0.000 OA
ATOM      8  H   UNL     1     -17.427  -2.659  31.151  0.00  0.00    +0.000 HD
ENDBRANCH   2   7
TORSDOF 2
ENDMDL
MODEL 9
REMARK VINA RESULT:    -2.727      6.098      7.220
REMARK INTER + INTRA:          -2.966
REMARK INTER:                  -2.966
REMARK INTRA:                   0.000
REMARK UNBOUND:                 0.000
REMARK  Name = C:\Users\sofiya chavarekar\OneDrive\Assignment- Module 1\PROJECT(AI-based drug target identification for SDH-related rare disorders)\Data\Ligands\PDB\Ligand_0061.pdb
REMARK  6 active torsions:
REMARK  status: ('A' for Active; 'I' for Inactive)
REMARK    1  A    between atoms: C_1  and  C_2
REMARK    2  A    between atoms: C_2  and  O_3
REMARK    3  A    between atoms: C_2  and  C_4
REMARK    4  A    between atoms: C_4  and  C_5
REMARK    5  A    between atoms: C_4  and  C_6
REMARK    6  A    between atoms: C_4  and  C_7
REMARK                            x       y       z     vdW  Elec       q    Type
REMARK                         _______ _______ _______ _____ _____    ______ ____
ROOT
ATOM      1  C   UNL     1     -16.434   6.634  28.009  0.00  0.00    +0.000 C 
ATOM      2  C   UNL     1     -15.309   6.640  26.974  0.00  0.00    +0.000 C 
ENDROOT
BRANCH   2   3
ATOM      3  C   UNL     1     -14.356   5.410  27.022  0.00  0.00    +0.000 C 
ATOM      4  C   UNL     1     -14.920   4.248  26.184  0.00  0.00    +0.000 C 
ATOM      5  C   UNL     1     -12.986   5.806  26.432  0.00  0.00    +0.000 C 
ATOM      6  C   UNL     1     -14.128   4.920  28.465  0.00  0.00    +0.000 C 
ENDBRANCH   2   3
BRANCH   2   7
ATOM      7  O   UNL     1     -14.552   7.838  27.159  0.00  0.00    +0.000 OA
ATOM      8  H   UNL     1     -13.817   7.635  27.763  0.00  0.00    +0.000 HD
ENDBRANCH   2   7
TORSDOF 2
ENDMDL
