MODEL 1
REMARK VINA RESULT:    -5.609      0.000      0.000
REMARK INTER + INTRA:          -5.773
REMARK INTER:                  -5.773
REMARK INTRA:                   0.000
REMARK UNBOUND:                 0.000
REMARK  Name = C:\Users\sofiya chavarekar\OneDrive\Assignment- Module 1\PROJECT(AI-based drug target identification for SDH-related rare disorders)\Data\Ligands\PDB\Ligand_0072.pdb
REMARK  1 active torsions:
REMARK  status: ('A' for Active; 'I' for Inactive)
REMARK    1  A    between atoms: O_1  and  C_2
REMARK                            x       y       z     vdW  Elec       q    Type
REMARK                         _______ _______ _______ _____ _____    ______ ____
ROOT
ATOM      1  C   UNL     1     -10.908   6.870  24.379  0.00  0.00    +0.000 A 
ATOM      2  C   UNL     1     -10.452   5.771  25.098  0.00  0.00    +0.000 A 
ATOM      3  C   UNL     1     -11.259   5.225  26.099  0.00  0.00    +0.000 A 
ATOM      4  C   UNL     1     -12.523   5.770  26.382  0.00  0.00    +0.000 A 
ATOM      5  C   UNL     1     -13.345   5.232  27.386  0.00  0.00    +0.000 A 
ATOM      6  C   UNL     1     -14.601   5.782  27.650  0.00  0.00    +0.000 A 
ATOM      7  C   UNL     1     -15.051   6.875  26.916  0.00  0.00    +0.000 A 
ATOM      8  C   UNL     1     -14.246   7.425  25.917  0.00  0.00    +0.000 A 
ATOM      9  C   UNL     1     -12.979   6.886  25.640  0.00  0.00    +0.000 A 
ATOM     10  C   UNL     1     -12.156   7.427  24.639  0.00  0.00    +0.000 A 
ENDROOT
BRANCH   1  11
ATOM     11  O   UNL     1     -10.152   7.436  23.395  0.00  0.00    +0.000 OA
ATOM     12  H   UNL     1     -10.134   6.834  22.633  0.00  0.00    +0.000 HD
ENDBRANCH   1  11
TORSDOF 1
ENDMDL
MODEL 2
REMARK VINA RESULT:    -5.190      1.258      2.321
REMARK INTER + INTRA:          -5.342
REMARK INTER:                  -5.342
REMARK INTRA:                   0.000
REMARK UNBOUND:                 0.000
REMARK  Name = C:\Users\sofiya chavarekar\OneDrive\Assignment- Module 1\PROJECT(AI-based drug target identification for SDH-related rare disorders)\Data\Ligands\PDB\Ligand_0072.pdb
REMARK  1 active torsions:
REMARK  status: ('A' for Active; 'I' for Inactive)
REMARK    1  A    between atoms: O_1  and  C_2
REMARK                            x       y       z     vdW  Elec       q    Type
REMARK                         _______ _______ _______ _____ _____    ______ ____
ROOT
ATOM      1  C   UNL     1     -10.484   5.163  25.639  0.00  0.00    +0.000 A 
ATOM      2  C   UNL     1     -10.595   6.279  24.818  0.00  0.00    +0.000 A 
ATOM      3  C   UNL     1     -11.751   7.060  24.877  0.00  0.00    +0.000 A 
ATOM      4  C   UNL     1     -12.797   6.734  25.757  0.00  0.00    +0.000 A 
ATOM      5  C   UNL     1     -13.965   7.510  25.827  0.00  0.00    +0.000 A 
ATOM      6  C   UNL     1     -14.993   7.175  26.712  0.00  0.00    +0.000 A 
ATOM      7  C   UNL     1     -14.865   6.062  27.536  0.00  0.00    +0.000 A 
ATOM      8  C   UNL     1     -13.713   5.277  27.478  0.00  0.00    +0.000 A 
ATOM      9  C   UNL     1     -12.671   5.598  26.593  0.00  0.00    +0.000 A 
ATOM     10  C   UNL     1     -11.505   4.819  26.520  0.00  0.00    +0.000 A 
ENDROOT
BRANCH   1  11
ATOM     11  O   UNL     1      -9.375   4.370  25.613  0.00  0.00    +0.000 OA
ATOM     12  H   UNL     1      -9.358   3.890  24.768  0.00  0.00    +0.000 HD
ENDBRANCH   1  11
TORSDOF 1
ENDMDL
MODEL 3
REMARK VINA RESULT:    -4.988      2.373      4.043
REMARK INTER + INTRA:          -5.134
REMARK INTER:                  -5.134
REMARK INTRA:                   0.000
REMARK UNBOUND:                 0.000
REMARK  Name = C:\Users\sofiya chavarekar\OneDrive\Assignment- Module 1\PROJECT(AI-based drug target identification for SDH-related rare disorders)\Data\Ligands\PDB\Ligand_0072.pdb
REMARK  1 active torsions:
REMARK  status: ('A' for Active; 'I' for Inactive)
REMARK    1  A    between atoms: O_1  and  C_2
REMARK                            x       y       z     vdW  Elec       q    Type
REMARK                         _______ _______ _______ _____ _____    ______ ____
ROOT
ATOM      1  C   UNL     1     -15.597   6.526  26.918  0.00  0.00    +0.000 A 
ATOM      2  C   UNL     1     -15.208   5.426  27.674  0.00  0.00    +0.000 A 
ATOM      3  C   UNL     1     -13.916   4.917  27.529  0.00  0.00    +0.000 A 
ATOM      4  C   UNL     1     -13.007   5.506  26.633  0.00  0.00    +0.000 A 
ATOM      5  C   UNL     1     -11.704   5.004  26.475  0.00  0.00    +0.000 A 
ATOM      6  C   UNL     1     -10.812   5.604  25.585  0.00  0.00    +0.000 A 
ATOM      7  C   UNL     1     -11.209   6.711  24.842  0.00  0.00    +0.000 A 
ATOM      8  C   UNL     1     -12.500   7.220  24.982  0.00  0.00    +0.000 A 
ATOM      9  C   UNL     1     -13.412   6.628  25.872  0.00  0.00    +0.000 A 
ATOM     10  C   UNL     1     -14.715   7.127  26.025  0.00  0.00    +0.000 A 
ENDROOT
BRANCH   1  11
ATOM     11  O   UNL     1     -16.850   7.054  27.026  0.00  0.00    +0.000 OA
ATOM     12  H   UNL     1     -17.364   6.507  27.642  0.00  0.00    +0.000 HD
ENDBRANCH   1  11
TORSDOF 1
ENDMDL
MODEL 4
REMARK VINA RESULT:    -4.956      2.563      4.600
REMARK INTER + INTRA:          -5.101
REMARK INTER:                  -5.101
REMARK INTRA:                   0.000
REMARK UNBOUND:                 0.000
REMARK  Name = C:\Users\sofiya chavarekar\OneDrive\Assignment- Module 1\PROJECT(AI-based drug target identification for SDH-related rare disorders)\Data\Ligands\PDB\Ligand_0072.pdb
REMARK  1 active torsions:
REMARK  status: ('A' for Active; 'I' for Inactive)
REMARK    1  A    between atoms: O_1  and  C_2
REMARK                            x       y       z     vdW  Elec       q    Type
REMARK                         _______ _______ _______ _____ _____    ______ ____
ROOT
ATOM      1  C   UNL     1     -15.256   5.888  27.804  0.00  0.00    +0.000 A 
ATOM      2  C   UNL     1     -15.571   6.980  27.003  0.00  0.00    +0.000 A 
ATOM      3  C   UNL     1     -14.634   7.441  26.075  0.00  0.00    +0.000 A 
ATOM      4  C   UNL     1     -13.385   6.812  25.941  0.00  0.00    +0.000 A 
ATOM      5  C   UNL     1     -12.433   7.265  25.013  0.00  0.00    +0.000 A 
ATOM      6  C   UNL     1     -11.198   6.626  24.888  0.00  0.00    +0.000 A 
ATOM      7  C   UNL     1     -10.899   5.527  25.687  0.00  0.00    +0.000 A 
ATOM      8  C   UNL     1     -11.831   5.066  26.618  0.00  0.00    +0.000 A 
ATOM      9  C   UNL     1     -13.077   5.699  26.758  0.00  0.00    +0.000 A 
ATOM     10  C   UNL     1     -14.026   5.248  27.690  0.00  0.00    +0.000 A 
ENDROOT
BRANCH   1  11
ATOM     11  O   UNL     1     -16.140   5.406  28.725  0.00  0.00    +0.000 OA
ATOM     12  H   UNL     1     -16.375   4.496  28.481  0.00  0.00    +0.000 HD
ENDBRANCH   1  11
TORSDOF 1
ENDMDL
MODEL 5
REMARK VINA RESULT:    -4.851      1.449      2.313
REMARK INTER + INTRA:          -4.993
REMARK INTER:                  -4.993
REMARK INTRA:                   0.000
REMARK UNBOUND:                 0.000
REMARK  Name = C:\Users\sofiya chavarekar\OneDrive\Assignment- Module 1\PROJECT(AI-based drug target identification for SDH-related rare disorders)\Data\Ligands\PDB\Ligand_0072.pdb
REMARK  1 active torsions:
REMARK  status: ('A' for Active; 'I' for Inactive)
REMARK    1  A    between atoms: O_1  and  C_2
REMARK                            x       y       z     vdW  Elec       q    Type
REMARK                         _______ _______ _______ _____ _____    ______ ____
ROOT
ATOM      1  C   UNL     1     -13.225   6.913  25.301  0.00  0.00    +0.000 A 
ATOM      2  C   UNL     1     -12.368   5.965  25.847  0.00  0.00    +0.000 A 
ATOM      3  C   UNL     1     -12.767   5.255  26.981  0.00  0.00    +0.000 A 
ATOM      4  C   UNL     1     -14.022   5.485  27.570  0.00  0.00    +0.000 A 
ATOM      5  C   UNL     1     -14.436   4.778  28.712  0.00  0.00    +0.000 A 
ATOM      6  C   UNL     1     -15.689   5.015  29.281  0.00  0.00    +0.000 A 
ATOM      7  C   UNL     1     -16.542   5.959  28.719  0.00  0.00    +0.000 A 
ATOM      8  C   UNL     1     -16.145   6.673  27.587  0.00  0.00    +0.000 A 
ATOM      9  C   UNL     1     -14.888   6.449  27.002  0.00  0.00    +0.000 A 
ATOM     10  C   UNL     1     -14.473   7.159  25.864  0.00  0.00    +0.000 A 
ENDROOT
BRANCH   1  11
ATOM     11  O   UNL     1     -12.875   7.632  24.195  0.00  0.00    +0.000 OA
ATOM     12  H   UNL     1     -12.358   8.404  24.479  0.00  0.00    +0.000 HD
ENDBRANCH   1  11
TORSDOF 1
ENDMDL
MODEL 6
REMARK VINA RESULT:    -4.689      2.865      4.837
REMARK INTER + INTRA:          -4.826
REMARK INTER:                  -4.826
REMARK INTRA:                   0.000
REMARK UNBOUND:                 0.000
REMARK  Name = C:\Users\sofiya chavarekar\OneDrive\Assignment- Module 1\PROJECT(AI-based drug target identification for SDH-related rare disorders)\Data\Ligands\PDB\Ligand_0072.pdb
REMARK  1 active torsions:
REMARK  status: ('A' for Active; 'I' for Inactive)
REMARK    1  A    between atoms: O_1  and  C_2
REMARK                            x       y       z     vdW  Elec       q    Type
REMARK                         _______ _______ _______ _____ _____    ______ ____
ROOT
ATOM      1  C   UNL     1     -15.037   4.767  28.769  0.00  0.00    +0.000 A 
ATOM      2  C   UNL     1     -15.909   5.752  28.320  0.00  0.00    +0.000 A 
ATOM      3  C   UNL     1     -15.510   6.598  27.284  0.00  0.00    +0.000 A 
ATOM      4  C   UNL     1     -14.243   6.463  26.690  0.00  0.00    +0.000 A 
ATOM      5  C   UNL     1     -13.828   7.307  25.648  0.00  0.00    +0.000 A 
ATOM      6  C   UNL     1     -12.568   7.155  25.065  0.00  0.00    +0.000 A 
ATOM      7  C   UNL     1     -11.708   6.159  25.516  0.00  0.00    +0.000 A 
ATOM      8  C   UNL     1     -12.103   5.313  26.554  0.00  0.00    +0.000 A 
ATOM      9  C   UNL     1     -13.366   5.453  27.153  0.00  0.00    +0.000 A 
ATOM     10  C   UNL     1     -13.778   4.611  28.198  0.00  0.00    +0.000 A 
ENDROOT
BRANCH   1  11
ATOM     11  O   UNL     1     -15.384   3.920  29.781  0.00  0.00    +0.000 OA
ATOM     12  H   UNL     1     -14.696   3.958  30.466  0.00  0.00    +0.000 HD
ENDBRANCH   1  11
TORSDOF 1
ENDMDL
MODEL 7
REMARK VINA RESULT:    -4.657      2.322      3.476
REMARK INTER + INTRA:          -4.793
REMARK INTER:                  -4.793
REMARK INTRA:                   0.000
REMARK UNBOUND:                 0.000
REMARK  Name = C:\Users\sofiya chavarekar\OneDrive\Assignment- Module 1\PROJECT(AI-based drug target identification for SDH-related rare disorders)\Data\Ligands\PDB\Ligand_0072.pdb
REMARK  1 active torsions:
REMARK  status: ('A' for Active; 'I' for Inactive)
REMARK    1  A    between atoms: O_1  and  C_2
REMARK                            x       y       z     vdW  Elec       q    Type
REMARK                         _______ _______ _______ _____ _____    ______ ____
ROOT
ATOM      1  C   UNL     1     -13.380   4.571  26.832  0.00  0.00    +0.000 A 
ATOM      2  C   UNL     1     -12.379   5.450  26.435  0.00  0.00    +0.000 A 
ATOM      3  C   UNL     1     -12.699   6.788  26.196  0.00  0.00    +0.000 A 
ATOM      4  C   UNL     1     -14.015   7.254  26.356  0.00  0.00    +0.000 A 
ATOM      5  C   UNL     1     -14.351   8.597  26.118  0.00  0.00    +0.000 A 
ATOM      6  C   UNL     1     -15.663   9.045  26.287  0.00  0.00    +0.000 A 
ATOM      7  C   UNL     1     -16.654   8.158  26.695  0.00  0.00    +0.000 A 
ATOM      8  C   UNL     1     -16.339   6.819  26.932  0.00  0.00    +0.000 A 
ATOM      9  C   UNL     1     -15.025   6.351  26.765  0.00  0.00    +0.000 A 
ATOM     10  C   UNL     1     -14.691   5.007  26.998  0.00  0.00    +0.000 A 
ENDROOT
BRANCH   1  11
ATOM     11  O   UNL     1     -13.114   3.255  27.074  0.00  0.00    +0.000 OA
ATOM     12  H   UNL     1     -12.166   3.100  26.928  0.00  0.00    +0.000 HD
ENDBRANCH   1  11
TORSDOF 1
ENDMDL
MODEL 8
REMARK VINA RESULT:    -4.606      1.649      2.955
REMARK INTER + INTRA:          -4.741
REMARK INTER:                  -4.741
REMARK INTRA:                   0.000
REMARK UNBOUND:                 0.000
REMARK  Name = C:\Users\sofiya chavarekar\OneDrive\Assignment- Module 1\PROJECT(AI-based drug target identification for SDH-related rare disorders)\Data\Ligands\PDB\Ligand_0072.pdb
REMARK  1 active torsions:
REMARK  status: ('A' for Active; 'I' for Inactive)
REMARK    1  A    between atoms: O_1  and  C_2
REMARK                            x       y       z     vdW  Elec       q    Type
REMARK                         _______ _______ _______ _____ _____    ______ ____
ROOT
ATOM      1  C   UNL     1     -12.037   6.369  25.660  0.00  0.00    +0.000 A 
ATOM      2  C   UNL     1     -13.182   7.106  25.379  0.00  0.00    +0.000 A 
ATOM      3  C   UNL     1     -14.430   6.602  25.752  0.00  0.00    +0.000 A 
ATOM      4  C   UNL     1     -14.539   5.364  26.408  0.00  0.00    +0.000 A 
ATOM      5  C   UNL     1     -15.787   4.844  26.789  0.00  0.00    +0.000 A 
ATOM      6  C   UNL     1     -15.878   3.615  27.446  0.00  0.00    +0.000 A 
ATOM      7  C   UNL     1     -14.724   2.892  27.731  0.00  0.00    +0.000 A 
ATOM      8  C   UNL     1     -13.476   3.392  27.357  0.00  0.00    +0.000 A 
ATOM      9  C   UNL     1     -13.367   4.625  26.694  0.00  0.00    +0.000 A 
ATOM     10  C   UNL     1     -12.119   5.142  26.310  0.00  0.00    +0.000 A 
ENDROOT
BRANCH   1  11
ATOM     11  O   UNL     1     -10.799   6.822  25.311  0.00  0.00    +0.000 OA
ATOM     12  H   UNL     1     -10.338   7.111  26.116  0.00  0.00    +0.000 HD
ENDBRANCH   1  11
TORSDOF 1
ENDMDL
MODEL 9
REMARK VINA RESULT:    -4.501     11.590     12.335
REMARK INTER + INTRA:          -4.633
REMARK INTER:                  -4.633
REMARK INTRA:                   0.000
REMARK UNBOUND:                 0.000
REMARK  Name = C:\Users\sofiya chavarekar\OneDrive\Assignment- Module 1\PROJECT(AI-based drug target identification for SDH-related rare disorders)\Data\Ligands\PDB\Ligand_0072.pdb
REMARK  1 active torsions:
REMARK  status: ('A' for Active; 'I' for Inactive)
REMARK    1  A    between atoms: O_1  and  C_2
REMARK                            x       y       z     vdW  Elec       q    Type
REMARK                         _______ _______ _______ _____ _____    ______ ____
ROOT
ATOM      1  C   UNL     1     -21.292  -1.554  19.408  0.00  0.00    +0.000 A 
ATOM      2  C   UNL     1     -21.270  -0.226  19.818  0.00  0.00    +0.000 A 
ATOM      3  C   UNL     1     -20.515   0.132  20.937  0.00  0.00    +0.000 A 
ATOM      4  C   UNL     1     -19.777  -0.831  21.646  0.00  0.00    +0.000 A 
ATOM      5  C   UNL     1     -19.014  -0.485  22.774  0.00  0.00    +0.000 A 
ATOM      6  C   UNL     1     -18.282  -1.453  23.465  0.00  0.00    +0.000 A 
ATOM      7  C   UNL     1     -18.303  -2.777  23.038  0.00  0.00    +0.000 A 
ATOM      8  C   UNL     1     -19.059  -3.139  21.922  0.00  0.00    +0.000 A 
ATOM      9  C   UNL     1     -19.803  -2.179  21.217  0.00  0.00    +0.000 A 
ATOM     10  C   UNL     1     -20.569  -2.526  20.093  0.00  0.00    +0.000 A 
ENDROOT
BRANCH   1  11
ATOM     11  O   UNL     1     -22.017  -1.949  18.322  0.00  0.00    +0.000 OA
ATOM     12  H   UNL     1     -22.154  -2.910  18.375  0.00  0.00    +0.000 HD
ENDBRANCH   1  11
TORSDOF 1
ENDMDL
