MODEL 1
REMARK VINA RESULT:    -2.587      0.000      0.000
REMARK INTER + INTRA:          -2.587
REMARK INTER:                  -2.587
REMARK INTRA:                   0.000
REMARK UNBOUND:                 0.000
REMARK  Name = C:\Users\sofiya chavarekar\OneDrive\Assignment- Module 1\PROJECT(AI-based drug target identification for SDH-related rare disorders)\Data\Ligands\PDB\Ligand_0028.pdb
REMARK  2 active torsions:
REMARK  status: ('A' for Active; 'I' for Inactive)
REMARK    1  A    between atoms: C_1  and  C_2
REMARK    2  A    between atoms: C_2  and  C_3
REMARK                            x       y       z     vdW  Elec       q    Type
REMARK                         _______ _______ _______ _____ _____    ______ ____
ROOT
ATOM      1  C   UNL     1     -10.749   5.194  25.941  0.00  0.00    +0.000 C 
ATOM      2  C   UNL     1     -11.279   6.585  25.606  0.00  0.00    +0.000 C 
ATOM      3  C   UNL     1     -10.833   7.019  24.214  0.00  0.00    +0.000 C 
ATOM      4  I   UNL     1     -13.434   6.587  25.714  0.00  0.00    +0.000 I 
ENDROOT
TORSDOF 0
ENDMDL
MODEL 2
REMARK VINA RESULT:    -2.501      1.782      1.856
REMARK INTER + INTRA:          -2.501
REMARK INTER:                  -2.501
REMARK INTRA:                   0.000
REMARK UNBOUND:                 0.000
REMARK  Name = C:\Users\sofiya chavarekar\OneDrive\Assignment- Module 1\PROJECT(AI-based drug target identification for SDH-related rare disorders)\Data\Ligands\PDB\Ligand_0028.pdb
REMARK  2 active torsions:
REMARK  status: ('A' for Active; 'I' for Inactive)
REMARK    1  A    between atoms: C_1  and  C_2
REMARK    2  A    between atoms: C_2  and  C_3
REMARK                            x       y       z     vdW  Elec       q    Type
REMARK                         _______ _______ _______ _____ _____    ______ ____
ROOT
ATOM      1  C   UNL     1     -11.106   5.565  26.062  0.00  0.00    +0.000 C 
ATOM      2  C   UNL     1     -12.455   6.186  26.409  0.00  0.00    +0.000 C 
ATOM      3  C   UNL     1     -13.009   6.983  25.233  0.00  0.00    +0.000 C 
ATOM      4  I   UNL     1     -13.850   4.634  26.958  0.00  0.00    +0.000 I 
ENDROOT
TORSDOF 0
ENDMDL
MODEL 3
REMARK VINA RESULT:    -2.355      1.842      2.146
REMARK INTER + INTRA:          -2.355
REMARK INTER:                  -2.355
REMARK INTRA:                   0.000
REMARK UNBOUND:                 0.000
REMARK  Name = C:\Users\sofiya chavarekar\OneDrive\Assignment- Module 1\PROJECT(AI-based drug target identification for SDH-related rare disorders)\Data\Ligands\PDB\Ligand_0028.pdb
REMARK  2 active torsions:
REMARK  status: ('A' for Active; 'I' for Inactive)
REMARK    1  A    between atoms: C_1  and  C_2
REMARK    2  A    between atoms: C_2  and  C_3
REMARK                            x       y       z     vdW  Elec       q    Type
REMARK                         _______ _______ _______ _____ _____    ______ ____
ROOT
ATOM      1  C   UNL     1     -13.353   4.434  26.837  0.00  0.00    +0.000 C 
ATOM      2  C   UNL     1     -12.613   5.768  26.857  0.00  0.00    +0.000 C 
ATOM      3  C   UNL     1     -11.315   5.684  26.062  0.00  0.00    +0.000 C 
ATOM      4  I   UNL     1     -13.875   7.311  26.030  0.00  0.00    +0.000 I 
ENDROOT
TORSDOF 0
ENDMDL
MODEL 4
REMARK VINA RESULT:    -2.136      2.770      3.395
REMARK INTER + INTRA:          -2.136
REMARK INTER:                  -2.136
REMARK INTRA:                   0.000
REMARK UNBOUND:                 0.000
REMARK  Name = C:\Users\sofiya chavarekar\OneDrive\Assignment- Module 1\PROJECT(AI-based drug target identification for SDH-related rare disorders)\Data\Ligands\PDB\Ligand_0028.pdb
REMARK  2 active torsions:
REMARK  status: ('A' for Active; 'I' for Inactive)
REMARK    1  A    between atoms: C_1  and  C_2
REMARK    2  A    between atoms: C_2  and  C_3
REMARK                            x       y       z     vdW  Elec       q    Type
REMARK                         _______ _______ _______ _____ _____    ______ ____
ROOT
ATOM      1  C   UNL     1     -14.048   6.525  25.712  0.00  0.00    +0.000 C 
ATOM      2  C   UNL     1     -13.128   5.798  26.688  0.00  0.00    +0.000 C 
ATOM      3  C   UNL     1     -13.609   4.372  26.935  0.00  0.00    +0.000 C 
ATOM      4  I   UNL     1     -11.118   5.763  25.904  0.00  0.00    +0.000 I 
ENDROOT
TORSDOF 0
ENDMDL
MODEL 5
REMARK VINA RESULT:    -2.133      2.632      2.868
REMARK INTER + INTRA:          -2.133
REMARK INTER:                  -2.133
REMARK INTRA:                   0.000
REMARK UNBOUND:                 0.000
REMARK  Name = C:\Users\sofiya chavarekar\OneDrive\Assignment- Module 1\PROJECT(AI-based drug target identification for SDH-related rare disorders)\Data\Ligands\PDB\Ligand_0028.pdb
REMARK  2 active torsions:
REMARK  status: ('A' for Active; 'I' for Inactive)
REMARK    1  A    between atoms: C_1  and  C_2
REMARK    2  A    between atoms: C_2  and  C_3
REMARK                            x       y       z     vdW  Elec       q    Type
REMARK                         _______ _______ _______ _____ _____    ______ ____
ROOT
ATOM      1  C   UNL     1     -13.864   5.183  27.057  0.00  0.00    +0.000 C 
ATOM      2  C   UNL     1     -13.262   6.023  25.935  0.00  0.00    +0.000 C 
ATOM      3  C   UNL     1     -13.615   7.497  26.105  0.00  0.00    +0.000 C 
ATOM      4  I   UNL     1     -11.118   5.784  25.918  0.00  0.00    +0.000 I 
ENDROOT
TORSDOF 0
ENDMDL
MODEL 6
REMARK VINA RESULT:    -1.860      4.241      4.852
REMARK INTER + INTRA:          -1.860
REMARK INTER:                  -1.860
REMARK INTRA:                   0.000
REMARK UNBOUND:                 0.000
REMARK  Name = C:\Users\sofiya chavarekar\OneDrive\Assignment- Module 1\PROJECT(AI-based drug target identification for SDH-related rare disorders)\Data\Ligands\PDB\Ligand_0028.pdb
REMARK  2 active torsions:
REMARK  status: ('A' for Active; 'I' for Inactive)
REMARK    1  A    between atoms: C_1  and  C_2
REMARK    2  A    between atoms: C_2  and  C_3
REMARK                            x       y       z     vdW  Elec       q    Type
REMARK                         _______ _______ _______ _____ _____    ______ ____
ROOT
ATOM      1  C   UNL     1     -16.146   8.251  26.074  0.00  0.00    +0.000 C 
ATOM      2  C   UNL     1     -15.327   7.247  26.879  0.00  0.00    +0.000 C 
ATOM      3  C   UNL     1     -16.101   5.950  27.085  0.00  0.00    +0.000 C 
ATOM      4  I   UNL     1     -13.473   6.834  25.854  0.00  0.00    +0.000 I 
ENDROOT
TORSDOF 0
ENDMDL
MODEL 7
REMARK VINA RESULT:    -1.854      3.620      4.151
REMARK INTER + INTRA:          -1.854
REMARK INTER:                  -1.854
REMARK INTRA:                   0.000
REMARK UNBOUND:                 0.000
REMARK  Name = C:\Users\sofiya chavarekar\OneDrive\Assignment- Module 1\PROJECT(AI-based drug target identification for SDH-related rare disorders)\Data\Ligands\PDB\Ligand_0028.pdb
REMARK  2 active torsions:
REMARK  status: ('A' for Active; 'I' for Inactive)
REMARK    1  A    between atoms: C_1  and  C_2
REMARK    2  A    between atoms: C_2  and  C_3
REMARK                            x       y       z     vdW  Elec       q    Type
REMARK                         _______ _______ _______ _____ _____    ______ ____
ROOT
ATOM      1  C   UNL     1     -13.316   7.279  26.182  0.00  0.00    +0.000 C 
ATOM      2  C   UNL     1     -14.819   7.532  26.117  0.00  0.00    +0.000 C 
ATOM      3  C   UNL     1     -15.549   6.783  27.227  0.00  0.00    +0.000 C 
ATOM      4  I   UNL     1     -15.209   9.648  26.290  0.00  0.00    +0.000 I 
ENDROOT
TORSDOF 0
ENDMDL
MODEL 8
REMARK VINA RESULT:    -1.850      3.173      3.420
REMARK INTER + INTRA:          -1.850
REMARK INTER:                  -1.850
REMARK INTRA:                   0.000
REMARK UNBOUND:                 0.000
REMARK  Name = C:\Users\sofiya chavarekar\OneDrive\Assignment- Module 1\PROJECT(AI-based drug target identification for SDH-related rare disorders)\Data\Ligands\PDB\Ligand_0028.pdb
REMARK  2 active torsions:
REMARK  status: ('A' for Active; 'I' for Inactive)
REMARK    1  A    between atoms: C_1  and  C_2
REMARK    2  A    between atoms: C_2  and  C_3
REMARK                            x       y       z     vdW  Elec       q    Type
REMARK                         _______ _______ _______ _____ _____    ______ ____
ROOT
ATOM      1  C   UNL     1     -15.172   5.738  26.830  0.00  0.00    +0.000 C 
ATOM      2  C   UNL     1     -14.193   6.879  26.568  0.00  0.00    +0.000 C 
ATOM      3  C   UNL     1     -13.435   6.661  25.263  0.00  0.00    +0.000 C 
ATOM      4  I   UNL     1     -15.265   8.751  26.483  0.00  0.00    +0.000 I 
ENDROOT
TORSDOF 0
ENDMDL
MODEL 9
REMARK VINA RESULT:    -1.803     13.124     13.418
REMARK INTER + INTRA:          -1.803
REMARK INTER:                  -1.803
REMARK INTRA:                   0.000
REMARK UNBOUND:                 0.000
REMARK  Name = C:\Users\sofiya chavarekar\OneDrive\Assignment- Module 1\PROJECT(AI-based drug target identification for SDH-related rare disorders)\Data\Ligands\PDB\Ligand_0028.pdb
REMARK  2 active torsions:
REMARK  status: ('A' for Active; 'I' for Inactive)
REMARK    1  A    between atoms: C_1  and  C_2
REMARK    2  A    between atoms: C_2  and  C_3
REMARK                            x       y       z     vdW  Elec       q    Type
REMARK                         _______ _______ _______ _____ _____    ______ ____
ROOT
ATOM      1  C   UNL     1     -18.394  -3.332  22.959  0.00  0.00    +0.000 C 
ATOM      2  C   UNL     1     -19.721  -3.544  22.238  0.00  0.00    +0.000 C 
ATOM      3  C   UNL     1     -19.739  -2.812  20.900  0.00  0.00    +0.000 C 
ATOM      4  I   UNL     1     -20.047  -5.653  21.918  0.00  0.00    +0.000 I 
ENDROOT
TORSDOF 0
ENDMDL
