MODEL 1
REMARK VINA RESULT:    -7.007      0.000      0.000
REMARK INTER + INTRA:          -8.679
REMARK INTER:                  -8.440
REMARK INTRA:                  -0.239
REMARK UNBOUND:                -0.239
REMARK  Name = C:\Users\sofiya chavarekar\OneDrive\Assignment- Module 1\PROJECT(AI-based drug target identification for SDH-related rare disorders)\Data\Ligands\PDB\Ligand_0101.pdb
REMARK  7 active torsions:
REMARK  status: ('A' for Active; 'I' for Inactive)
REMARK    1  A    between atoms: C1_1  and  C2_2
REMARK    2  A    between atoms: C12_13  and  O2_14
REMARK    3  A    between atoms: C14_16  and  C15_17
REMARK    4  A    between atoms: C19_21  and  O3_22
REMARK    5  A    between atoms: C19_21  and  C20_23
REMARK    6  A    between atoms: C20_23  and  C21_25
REMARK    7  A    between atoms: C21_25  and  O5_26
REMARK                            x       y       z     vdW  Elec       q    Type
REMARK                         _______ _______ _______ _____ _____    ______ ____
ROOT
ATOM      1  C1  UNL     1     -16.458   1.636  26.480  0.00  0.00    +0.000 C 
ATOM      2  C2  UNL     1     -15.953   2.455  27.711  0.00  0.00    +0.000 C 
ATOM      3  C3  UNL     1     -16.121   3.960  27.351  0.00  0.00    +0.000 C 
ATOM      4  C4  UNL     1     -15.069   4.450  26.368  0.00  0.00    +0.000 C 
ATOM      5  C5  UNL     1     -13.714   4.239  26.993  0.00  0.00    +0.000 C 
ATOM      6  O1  UNL     1     -12.810   5.064  26.915  0.00  0.00    +0.000 OA
ATOM      7  C6  UNL     1     -13.464   2.933  27.649  0.00  0.00    +0.000 C 
ATOM      8  C7  UNL     1     -14.479   2.090  27.913  0.00  0.00    +0.000 C 
ATOM      9  C8  UNL     1     -14.160   0.681  28.376  0.00  0.00    +0.000 C 
ATOM     10  C9  UNL     1     -15.298  -0.004  29.132  0.00  0.00    +0.000 C 
ATOM     11  C10 UNL     1     -16.104   1.017  29.920  0.00  0.00    +0.000 C 
ATOM     12  C11 UNL     1     -16.817   2.042  28.971  0.00  0.00    +0.000 C 
ATOM     13  C12 UNL     1     -17.472   3.151  29.846  0.00  0.00    +0.000 C 
ATOM     14  C13 UNL     1     -18.477   2.538  30.865  0.00  0.00    +0.000 C 
ATOM     15  C14 UNL     1     -17.861   1.418  31.763  0.00  0.00    +0.000 C 
ATOM     16  C15 UNL     1     -16.864   2.082  32.759  0.00  0.00    +0.000 C 
ATOM     17  C16 UNL     1     -17.214   0.407  30.776  0.00  0.00    +0.000 C 
ATOM     18  C17 UNL     1     -16.998  -0.835  31.624  0.00  0.00    +0.000 C 
ATOM     19  C18 UNL     1     -18.414  -0.983  32.205  0.00  0.00    +0.000 C 
ATOM     20  C19 UNL     1     -18.859   0.471  32.555  0.00  0.00    +0.000 C 
ENDROOT
BRANCH  13  21
ATOM     21  O2  UNL     1     -16.524   3.929  30.564  0.00  0.00    +0.000 OA
ATOM     22  H16 UNL     1     -15.730   3.398  30.744  0.00  0.00    +0.000 HD
ENDBRANCH  13  21
BRANCH  20  23
ATOM     23  O3  UNL     1     -18.740   0.620  33.973  0.00  0.00    +0.000 OA
ATOM     24  H27 UNL     1     -18.270   1.444  34.170  0.00  0.00    +0.000 HD
ENDBRANCH  20  23
BRANCH  20  25
ATOM     25  C20 UNL     1     -20.333   0.733  32.200  0.00  0.00    +0.000 C 
ATOM     26  O4  UNL     1     -21.035   1.546  32.811  0.00  0.00    +0.000 OA
BRANCH  25  27
ATOM     27  C21 UNL     1     -20.947  -0.168  31.125  0.00  0.00    +0.000 C 
BRANCH  27  28
ATOM     28  O5  UNL     1     -22.086  -0.877  31.595  0.00  0.00    +0.000 OA
ATOM     29  H30 UNL     1     -22.377  -1.450  30.855  0.00  0.00    +0.000 HD
ENDBRANCH  27  28
ENDBRANCH  25  27
ENDBRANCH  20  25
TORSDOF 5
ENDMDL
MODEL 2
REMARK VINA RESULT:    -6.860      1.926      2.661
REMARK INTER + INTRA:          -8.503
REMARK INTER:                  -8.290
REMARK INTRA:                  -0.212
REMARK UNBOUND:                -0.239
REMARK  Name = C:\Users\sofiya chavarekar\OneDrive\Assignment- Module 1\PROJECT(AI-based drug target identification for SDH-related rare disorders)\Data\Ligands\PDB\Ligand_0101.pdb
REMARK  7 active torsions:
REMARK  status: ('A' for Active; 'I' for Inactive)
REMARK    1  A    between atoms: C1_1  and  C2_2
REMARK    2  A    between atoms: C12_13  and  O2_14
REMARK    3  A    between atoms: C14_16  and  C15_17
REMARK    4  A    between atoms: C19_21  and  O3_22
REMARK    5  A    between atoms: C19_21  and  C20_23
REMARK    6  A    between atoms: C20_23  and  C21_25
REMARK    7  A    between atoms: C21_25  and  O5_26
REMARK                            x       y       z     vdW  Elec       q    Type
REMARK                         _______ _______ _______ _____ _____    ______ ____
ROOT
ATOM      1  C1  UNL     1     -18.800   4.474  27.322  0.00  0.00    +0.000 C 
ATOM      2  C2  UNL     1     -17.497   4.032  28.063  0.00  0.00    +0.000 C 
ATOM      3  C3  UNL     1     -17.111   5.190  29.029  0.00  0.00    +0.000 C 
ATOM      4  C4  UNL     1     -16.509   6.383  28.305  0.00  0.00    +0.000 C 
ATOM      5  C5  UNL     1     -15.274   5.913  27.581  0.00  0.00    +0.000 C 
ATOM      6  O1  UNL     1     -14.236   6.565  27.542  0.00  0.00    +0.000 OA
ATOM      7  C6  UNL     1     -15.375   4.645  26.818  0.00  0.00    +0.000 C 
ATOM      8  C7  UNL     1     -16.425   3.821  26.989  0.00  0.00    +0.000 C 
ATOM      9  C8  UNL     1     -16.603   2.654  26.036  0.00  0.00    +0.000 C 
ATOM     10  C9  UNL     1     -17.461   1.517  26.590  0.00  0.00    +0.000 C 
ATOM     11  C10 UNL     1     -17.283   1.400  28.095  0.00  0.00    +0.000 C 
ATOM     12  C11 UNL     1     -17.796   2.684  28.836  0.00  0.00    +0.000 C 
ATOM     13  C12 UNL     1     -17.423   2.567  30.343  0.00  0.00    +0.000 C 
ATOM     14  C13 UNL     1     -18.028   1.278  30.970  0.00  0.00    +0.000 C 
ATOM     15  C14 UNL     1     -17.655  -0.032  30.206  0.00  0.00    +0.000 C 
ATOM     16  C15 UNL     1     -16.142  -0.323  30.441  0.00  0.00    +0.000 C 
ATOM     17  C16 UNL     1     -18.040   0.231  28.723  0.00  0.00    +0.000 C 
ATOM     18  C17 UNL     1     -18.055  -1.156  28.104  0.00  0.00    +0.000 C 
ATOM     19  C18 UNL     1     -18.965  -1.868  29.118  0.00  0.00    +0.000 C 
ATOM     20  C19 UNL     1     -18.505  -1.337  30.512  0.00  0.00    +0.000 C 
ENDROOT
BRANCH  13  21
ATOM     21  O2  UNL     1     -16.021   2.560  30.572  0.00  0.00    +0.000 OA
ATOM     22  H16 UNL     1     -15.550   2.762  29.746  0.00  0.00    +0.000 HD
ENDBRANCH  13  21
BRANCH  20  23
ATOM     23  O3  UNL     1     -17.719  -2.368  31.118  0.00  0.00    +0.000 OA
ATOM     24  H27 UNL     1     -16.781  -2.140  31.045  0.00  0.00    +0.000 HD
ENDBRANCH  20  23
BRANCH  20  25
ATOM     25  C20 UNL     1     -19.690  -1.065  31.454  0.00  0.00    +0.000 C 
ATOM     26  O4  UNL     1     -19.592  -1.111  32.685  0.00  0.00    +0.000 OA
BRANCH  25  27
ATOM     27  C21 UNL     1     -21.057  -0.863  30.793  0.00  0.00    +0.000 C 
BRANCH  27  28
ATOM     28  O5  UNL     1     -22.075  -0.550  31.734  0.00  0.00    +0.000 OA
ATOM     29  H30 UNL     1     -21.753  -0.870  32.603  0.00  0.00    +0.000 HD
ENDBRANCH  27  28
ENDBRANCH  25  27
ENDBRANCH  20  25
TORSDOF 5
ENDMDL
MODEL 3
REMARK VINA RESULT:    -6.639      3.349      5.041
REMARK INTER + INTRA:          -8.237
REMARK INTER:                  -7.954
REMARK INTRA:                  -0.283
REMARK UNBOUND:                -0.239
REMARK  Name = C:\Users\sofiya chavarekar\OneDrive\Assignment- Module 1\PROJECT(AI-based drug target identification for SDH-related rare disorders)\Data\Ligands\PDB\Ligand_0101.pdb
REMARK  7 active torsions:
REMARK  status: ('A' for Active; 'I' for Inactive)
REMARK    1  A    between atoms: C1_1  and  C2_2
REMARK    2  A    between atoms: C12_13  and  O2_14
REMARK    3  A    between atoms: C14_16  and  C15_17
REMARK    4  A    between atoms: C19_21  and  O3_22
REMARK    5  A    between atoms: C19_21  and  C20_23
REMARK    6  A    between atoms: C20_23  and  C21_25
REMARK    7  A    between atoms: C21_25  and  O5_26
REMARK                            x       y       z     vdW  Elec       q    Type
REMARK                         _______ _______ _______ _____ _____    ______ ____
ROOT
ATOM      1  C1  UNL     1     -18.335   2.237  25.958  0.00  0.00    +0.000 C 
ATOM      2  C2  UNL     1     -18.430   0.698  26.208  0.00  0.00    +0.000 C 
ATOM      3  C3  UNL     1     -17.253   0.040  25.430  0.00  0.00    +0.000 C 
ATOM      4  C4  UNL     1     -17.494  -0.008  23.930  0.00  0.00    +0.000 C 
ATOM      5  C5  UNL     1     -18.751  -0.802  23.686  0.00  0.00    +0.000 C 
ATOM      6  O1  UNL     1     -18.858  -1.617  22.776  0.00  0.00    +0.000 OA
ATOM      7  C6  UNL     1     -19.922  -0.502  24.546  0.00  0.00    +0.000 C 
ATOM      8  C7  UNL     1     -19.786   0.241  25.659  0.00  0.00    +0.000 C 
ATOM      9  C8  UNL     1     -21.033   0.711  26.384  0.00  0.00    +0.000 C 
ATOM     10  C9  UNL     1     -20.808   1.069  27.853  0.00  0.00    +0.000 C 
ATOM     11  C10 UNL     1     -19.722   0.191  28.455  0.00  0.00    +0.000 C 
ATOM     12  C11 UNL     1     -18.334   0.440  27.766  0.00  0.00    +0.000 C 
ATOM     13  C12 UNL     1     -17.319  -0.608  28.308  0.00  0.00    +0.000 C 
ATOM     14  C13 UNL     1     -17.200  -0.523  29.857  0.00  0.00    +0.000 C 
ATOM     15  C14 UNL     1     -18.567  -0.642  30.603  0.00  0.00    +0.000 C 
ATOM     16  C15 UNL     1     -19.073  -2.110  30.470  0.00  0.00    +0.000 C 
ATOM     17  C16 UNL     1     -19.489   0.423  29.947  0.00  0.00    +0.000 C 
ATOM     18  C17 UNL     1     -20.633   0.567  30.936  0.00  0.00    +0.000 C 
ATOM     19  C18 UNL     1     -19.819   0.803  32.219  0.00  0.00    +0.000 C 
ATOM     20  C19 UNL     1     -18.622  -0.193  32.126  0.00  0.00    +0.000 C 
ENDROOT
BRANCH  13  21
ATOM     21  O2  UNL     1     -17.656  -1.944  27.958  0.00  0.00    +0.000 OA
ATOM     22  H16 UNL     1     -16.949  -2.548  28.240  0.00  0.00    +0.000 HD
ENDBRANCH  13  21
BRANCH  20  23
ATOM     23  O3  UNL     1     -18.911  -1.285  33.004  0.00  0.00    +0.000 OA
ATOM     24  H27 UNL     1     -18.089  -1.748  33.220  0.00  0.00    +0.000 HD
ENDBRANCH  20  23
BRANCH  20  25
ATOM     25  C20 UNL     1     -17.302   0.432  32.608  0.00  0.00    +0.000 C 
ATOM     26  O4  UNL     1     -17.035   1.630  32.463  0.00  0.00    +0.000 OA
BRANCH  25  27
ATOM     27  C21 UNL     1     -16.252  -0.534  33.165  0.00  0.00    +0.000 C 
BRANCH  27  28
ATOM     28  O5  UNL     1     -16.623  -1.070  34.429  0.00  0.00    +0.000 OA
ATOM     29  H30 UNL     1     -16.602  -0.320  35.060  0.00  0.00    +0.000 HD
ENDBRANCH  27  28
ENDBRANCH  25  27
ENDBRANCH  20  25
TORSDOF 5
ENDMDL
MODEL 4
REMARK VINA RESULT:    -6.427      3.932      7.042
REMARK INTER + INTRA:          -7.981
REMARK INTER:                  -7.662
REMARK INTRA:                  -0.318
REMARK UNBOUND:                -0.239
REMARK  Name = C:\Users\sofiya chavarekar\OneDrive\Assignment- Module 1\PROJECT(AI-based drug target identification for SDH-related rare disorders)\Data\Ligands\PDB\Ligand_0101.pdb
REMARK  7 active torsions:
REMARK  status: ('A' for Active; 'I' for Inactive)
REMARK    1  A    between atoms: C1_1  and  C2_2
REMARK    2  A    between atoms: C12_13  and  O2_14
REMARK    3  A    between atoms: C14_16  and  C15_17
REMARK    4  A    between atoms: C19_21  and  O3_22
REMARK    5  A    between atoms: C19_21  and  C20_23
REMARK    6  A    between atoms: C20_23  and  C21_25
REMARK    7  A    between atoms: C21_25  and  O5_26
REMARK                            x       y       z     vdW  Elec       q    Type
REMARK                         _______ _______ _______ _____ _____    ______ ____
ROOT
ATOM      1  C1  UNL     1     -20.546   4.685  32.355  0.00  0.00    +0.000 C 
ATOM      2  C2  UNL     1     -21.341   3.386  32.705  0.00  0.00    +0.000 C 
ATOM      3  C3  UNL     1     -22.792   3.590  32.179  0.00  0.00    +0.000 C 
ATOM      4  C4  UNL     1     -23.604   4.535  33.049  0.00  0.00    +0.000 C 
ATOM      5  C5  UNL     1     -23.659   3.957  34.440  0.00  0.00    +0.000 C 
ATOM      6  O1  UNL     1     -24.677   3.966  35.125  0.00  0.00    +0.000 OA
ATOM      7  C6  UNL     1     -22.392   3.440  35.011  0.00  0.00    +0.000 C 
ATOM      8  C7  UNL     1     -21.314   3.245  34.230  0.00  0.00    +0.000 C 
ATOM      9  C8  UNL     1     -19.982   2.932  34.885  0.00  0.00    +0.000 C 
ATOM     10  C9  UNL     1     -18.981   2.230  33.967  0.00  0.00    +0.000 C 
ATOM     11  C10 UNL     1     -19.706   1.331  32.978  0.00  0.00    +0.000 C 
ATOM     12  C11 UNL     1     -20.620   2.160  32.010  0.00  0.00    +0.000 C 
ATOM     13  C12 UNL     1     -21.457   1.168  31.151  0.00  0.00    +0.000 C 
ATOM     14  C13 UNL     1     -20.533   0.200  30.356  0.00  0.00    +0.000 C 
ATOM     15  C14 UNL     1     -19.509  -0.571  31.249  0.00  0.00    +0.000 C 
ATOM     16  C15 UNL     1     -20.291  -1.613  32.104  0.00  0.00    +0.000 C 
ATOM     17  C16 UNL     1     -18.775   0.523  32.074  0.00  0.00    +0.000 C 
ATOM     18  C17 UNL     1     -17.544  -0.192  32.604  0.00  0.00    +0.000 C 
ATOM     19  C18 UNL     1     -17.015  -0.779  31.285  0.00  0.00    +0.000 C 
ATOM     20  C19 UNL     1     -18.285  -1.280  30.529  0.00  0.00    +0.000 C 
ENDROOT
BRANCH  13  21
ATOM     21  O2  UNL     1     -22.364   0.390  31.920  0.00  0.00    +0.000 OA
ATOM     22  H16 UNL     1     -22.144  -0.553  31.837  0.00  0.00    +0.000 HD
ENDBRANCH  13  21
BRANCH  20  23
ATOM     23  O3  UNL     1     -18.323  -2.704  30.666  0.00  0.00    +0.000 OA
ATOM     24  H27 UNL     1     -17.968  -2.952  31.533  0.00  0.00    +0.000 HD
ENDBRANCH  20  23
BRANCH  20  25
ATOM     25  C20 UNL     1     -18.226  -0.977  29.022  0.00  0.00    +0.000 C 
ATOM     26  O4  UNL     1     -17.907   0.129  28.573  0.00  0.00    +0.000 OA
BRANCH  25  27
ATOM     27  C21 UNL     1     -18.719  -2.083  28.084  0.00  0.00    +0.000 C 
BRANCH  27  28
ATOM     28  O5  UNL     1     -19.967  -2.626  28.492  0.00  0.00    +0.000 OA
ATOM     29  H30 UNL     1     -20.082  -2.374  29.432  0.00  0.00    +0.000 HD
ENDBRANCH  27  28
ENDBRANCH  25  27
ENDBRANCH  20  25
TORSDOF 5
ENDMDL
MODEL 5
REMARK VINA RESULT:    -6.203      3.771      6.957
REMARK INTER + INTRA:          -7.711
REMARK INTER:                  -7.424
REMARK INTRA:                  -0.286
REMARK UNBOUND:                -0.239
REMARK  Name = C:\Users\sofiya chavarekar\OneDrive\Assignment- Module 1\PROJECT(AI-based drug target identification for SDH-related rare disorders)\Data\Ligands\PDB\Ligand_0101.pdb
REMARK  7 active torsions:
REMARK  status: ('A' for Active; 'I' for Inactive)
REMARK    1  A    between atoms: C1_1  and  C2_2
REMARK    2  A    between atoms: C12_13  and  O2_14
REMARK    3  A    between atoms: C14_16  and  C15_17
REMARK    4  A    between atoms: C19_21  and  O3_22
REMARK    5  A    between atoms: C19_21  and  C20_23
REMARK    6  A    between atoms: C20_23  and  C21_25
REMARK    7  A    between atoms: C21_25  and  O5_26
REMARK                            x       y       z     vdW  Elec       q    Type
REMARK                         _______ _______ _______ _____ _____    ______ ____
ROOT
ATOM      1  C1  UNL     1     -19.932   1.618  30.640  0.00  0.00    +0.000 C 
ATOM      2  C2  UNL     1     -18.829   0.545  30.369  0.00  0.00    +0.000 C 
ATOM      3  C3  UNL     1     -19.315  -0.779  31.028  0.00  0.00    +0.000 C 
ATOM      4  C4  UNL     1     -19.181  -0.764  32.543  0.00  0.00    +0.000 C 
ATOM      5  C5  UNL     1     -17.728  -0.549  32.879  0.00  0.00    +0.000 C 
ATOM      6  O1  UNL     1     -17.157  -1.155  33.780  0.00  0.00    +0.000 OA
ATOM      7  C6  UNL     1     -17.006   0.508  32.131  0.00  0.00    +0.000 C 
ATOM      8  C7  UNL     1     -17.541   1.055  31.024  0.00  0.00    +0.000 C 
ATOM      9  C8  UNL     1     -16.882   2.281  30.420  0.00  0.00    +0.000 C 
ATOM     10  C9  UNL     1     -17.210   2.507  28.944  0.00  0.00    +0.000 C 
ATOM     11  C10 UNL     1     -17.410   1.177  28.233  0.00  0.00    +0.000 C 
ATOM     12  C11 UNL     1     -18.649   0.401  28.803  0.00  0.00    +0.000 C 
ATOM     13  C12 UNL     1     -18.685  -1.014  28.156  0.00  0.00    +0.000 C 
ATOM     14  C13 UNL     1     -18.750  -0.917  26.604  0.00  0.00    +0.000 C 
ATOM     15  C14 UNL     1     -17.610  -0.052  25.977  0.00  0.00    +0.000 C 
ATOM     16  C15 UNL     1     -16.267  -0.829  26.126  0.00  0.00    +0.000 C 
ATOM     17  C16 UNL     1     -17.660   1.306  26.731  0.00  0.00    +0.000 C 
ATOM     18  C17 UNL     1     -16.847   2.238  25.848  0.00  0.00    +0.000 C 
ATOM     19  C18 UNL     1     -17.546   1.972  24.504  0.00  0.00    +0.000 C 
ATOM     20  C19 UNL     1     -17.786   0.430  24.474  0.00  0.00    +0.000 C 
ENDROOT
BRANCH  13  21
ATOM     21  O2  UNL     1     -17.567  -1.818  28.508  0.00  0.00    +0.000 OA
ATOM     22  H16 UNL     1     -17.259  -2.313  27.731  0.00  0.00    +0.000 HD
ENDBRANCH  13  21
BRANCH  20  23
ATOM     23  O3  UNL     1     -16.801  -0.135  23.603  0.00  0.00    +0.000 OA
ATOM     24  H27 UNL     1     -15.953  -0.183  24.068  0.00  0.00    +0.000 HD
ENDBRANCH  20  23
BRANCH  20  25
ATOM     25  C20 UNL     1     -19.162   0.064  23.892  0.00  0.00    +0.000 C 
ATOM     26  O4  UNL     1     -20.194   0.685  24.168  0.00  0.00    +0.000 OA
BRANCH  25  27
ATOM     27  C21 UNL     1     -19.228  -1.209  23.044  0.00  0.00    +0.000 C 
BRANCH  27  28
ATOM     28  O5  UNL     1     -19.154  -0.938  21.650  0.00  0.00    +0.000 OA
ATOM     29  H30 UNL     1     -18.238  -1.154  21.376  0.00  0.00    +0.000 HD
ENDBRANCH  27  28
ENDBRANCH  25  27
ENDBRANCH  20  25
TORSDOF 5
ENDMDL
MODEL 6
REMARK VINA RESULT:    -6.156      2.069      3.094
REMARK INTER + INTRA:          -7.654
REMARK INTER:                  -7.363
REMARK INTRA:                  -0.291
REMARK UNBOUND:                -0.239
REMARK  Name = C:\Users\sofiya chavarekar\OneDrive\Assignment- Module 1\PROJECT(AI-based drug target identification for SDH-related rare disorders)\Data\Ligands\PDB\Ligand_0101.pdb
REMARK  7 active torsions:
REMARK  status: ('A' for Active; 'I' for Inactive)
REMARK    1  A    between atoms: C1_1  and  C2_2
REMARK    2  A    between atoms: C12_13  and  O2_14
REMARK    3  A    between atoms: C14_16  and  C15_17
REMARK    4  A    between atoms: C19_21  and  O3_22
REMARK    5  A    between atoms: C19_21  and  C20_23
REMARK    6  A    between atoms: C20_23  and  C21_25
REMARK    7  A    between atoms: C21_25  and  O5_26
REMARK                            x       y       z     vdW  Elec       q    Type
REMARK                         _______ _______ _______ _____ _____    ______ ____
ROOT
ATOM      1  C1  UNL     1     -16.251   1.916  26.822  0.00  0.00    +0.000 C 
ATOM      2  C2  UNL     1     -15.962   1.179  28.168  0.00  0.00    +0.000 C 
ATOM      3  C3  UNL     1     -15.001   2.091  28.986  0.00  0.00    +0.000 C 
ATOM      4  C4  UNL     1     -13.576   2.065  28.458  0.00  0.00    +0.000 C 
ATOM      5  C5  UNL     1     -13.081   0.643  28.524  0.00  0.00    +0.000 C 
ATOM      6  O1  UNL     1     -11.948   0.348  28.889  0.00  0.00    +0.000 OA
ATOM      7  C6  UNL     1     -13.997  -0.418  28.039  0.00  0.00    +0.000 C 
ATOM      8  C7  UNL     1     -15.296  -0.154  27.811  0.00  0.00    +0.000 C 
ATOM      9  C8  UNL     1     -16.144  -1.198  27.107  0.00  0.00    +0.000 C 
ATOM     10  C9  UNL     1     -17.645  -1.057  27.354  0.00  0.00    +0.000 C 
ATOM     11  C10 UNL     1     -17.907  -0.510  28.749  0.00  0.00    +0.000 C 
ATOM     12  C11 UNL     1     -17.339   0.943  28.912  0.00  0.00    +0.000 C 
ATOM     13  C12 UNL     1     -17.485   1.366  30.403  0.00  0.00    +0.000 C 
ATOM     14  C13 UNL     1     -18.970   1.289  30.863  0.00  0.00    +0.000 C 
ATOM     15  C14 UNL     1     -19.637  -0.101  30.615  0.00  0.00    +0.000 C 
ATOM     16  C15 UNL     1     -19.013  -1.128  31.607  0.00  0.00    +0.000 C 
ATOM     17  C16 UNL     1     -19.388  -0.417  29.114  0.00  0.00    +0.000 C 
ATOM     18  C17 UNL     1     -20.372  -1.535  28.814  0.00  0.00    +0.000 C 
ATOM     19  C18 UNL     1     -21.655  -0.884  29.357  0.00  0.00    +0.000 C 
ATOM     20  C19 UNL     1     -21.221  -0.186  30.683  0.00  0.00    +0.000 C 
ENDROOT
BRANCH  13  21
ATOM     21  O2  UNL     1     -16.702   0.575  31.287  0.00  0.00    +0.000 OA
ATOM     22  H16 UNL     1     -16.501   1.080  32.092  0.00  0.00    +0.000 HD
ENDBRANCH  13  21
BRANCH  20  23
ATOM     23  O3  UNL     1     -21.676  -1.008  31.762  0.00  0.00    +0.000 OA
ATOM     24  H27 UNL     1     -21.474  -0.573  32.603  0.00  0.00    +0.000 HD
ENDBRANCH  20  23
BRANCH  20  25
ATOM     25  C20 UNL     1     -21.881   1.192  30.862  0.00  0.00    +0.000 C 
ATOM     26  O4  UNL     1     -21.958   2.022  29.950  0.00  0.00    +0.000 OA
BRANCH  25  27
ATOM     27  C21 UNL     1     -22.330   1.556  32.280  0.00  0.00    +0.000 C 
BRANCH  27  28
ATOM     28  O5  UNL     1     -21.363   1.206  33.263  0.00  0.00    +0.000 OA
ATOM     29  H30 UNL     1     -21.304   0.228  33.254  0.00  0.00    +0.000 HD
ENDBRANCH  27  28
ENDBRANCH  25  27
ENDBRANCH  20  25
TORSDOF 5
ENDMDL
MODEL 7
REMARK VINA RESULT:    -6.135      2.162      6.794
REMARK INTER + INTRA:          -7.629
REMARK INTER:                  -7.409
REMARK INTRA:                  -0.220
REMARK UNBOUND:                -0.239
REMARK  Name = C:\Users\sofiya chavarekar\OneDrive\Assignment- Module 1\PROJECT(AI-based drug target identification for SDH-related rare disorders)\Data\Ligands\PDB\Ligand_0101.pdb
REMARK  7 active torsions:
REMARK  status: ('A' for Active; 'I' for Inactive)
REMARK    1  A    between atoms: C1_1  and  C2_2
REMARK    2  A    between atoms: C12_13  and  O2_14
REMARK    3  A    between atoms: C14_16  and  C15_17
REMARK    4  A    between atoms: C19_21  and  O3_22
REMARK    5  A    between atoms: C19_21  and  C20_23
REMARK    6  A    between atoms: C20_23  and  C21_25
REMARK    7  A    between atoms: C21_25  and  O5_26
REMARK                            x       y       z     vdW  Elec       q    Type
REMARK                         _______ _______ _______ _____ _____    ______ ____
ROOT
ATOM      1  C1  UNL     1     -19.232  -0.888  32.786  0.00  0.00    +0.000 C 
ATOM      2  C2  UNL     1     -19.415   0.443  31.989  0.00  0.00    +0.000 C 
ATOM      3  C3  UNL     1     -19.475   1.593  33.036  0.00  0.00    +0.000 C 
ATOM      4  C4  UNL     1     -20.802   1.644  33.776  0.00  0.00    +0.000 C 
ATOM      5  C5  UNL     1     -21.894   1.847  32.758  0.00  0.00    +0.000 C 
ATOM      6  O1  UNL     1     -22.842   2.604  32.939  0.00  0.00    +0.000 OA
ATOM      7  C6  UNL     1     -21.841   1.016  31.530  0.00  0.00    +0.000 C 
ATOM      8  C7  UNL     1     -20.733   0.321  31.217  0.00  0.00    +0.000 C 
ATOM      9  C8  UNL     1     -20.794  -0.685  30.083  0.00  0.00    +0.000 C 
ATOM     10  C9  UNL     1     -19.436  -1.021  29.468  0.00  0.00    +0.000 C 
ATOM     11  C10 UNL     1     -18.514   0.187  29.520  0.00  0.00    +0.000 C 
ATOM     12  C11 UNL     1     -18.191   0.601  30.998  0.00  0.00    +0.000 C 
ATOM     13  C12 UNL     1     -17.394   1.938  30.974  0.00  0.00    +0.000 C 
ATOM     14  C13 UNL     1     -16.092   1.797  30.133  0.00  0.00    +0.000 C 
ATOM     15  C14 UNL     1     -16.330   1.270  28.682  0.00  0.00    +0.000 C 
ATOM     16  C15 UNL     1     -17.039   2.391  27.864  0.00  0.00    +0.000 C 
ATOM     17  C16 UNL     1     -17.159  -0.034  28.848  0.00  0.00    +0.000 C 
ATOM     18  C17 UNL     1     -17.022  -0.721  27.500  0.00  0.00    +0.000 C 
ATOM     19  C18 UNL     1     -15.491  -0.684  27.362  0.00  0.00    +0.000 C 
ATOM     20  C19 UNL     1     -15.074   0.729  27.875  0.00  0.00    +0.000 C 
ENDROOT
BRANCH  13  21
ATOM     21  O2  UNL     1     -18.146   3.027  30.455  0.00  0.00    +0.000 OA
ATOM     22  H16 UNL     1     -19.024   3.050  30.871  0.00  0.00    +0.000 HD
ENDBRANCH  13  21
BRANCH  20  23
ATOM     23  O3  UNL     1     -14.784   1.528  26.723  0.00  0.00    +0.000 OA
ATOM     24  H27 UNL     1     -14.548   2.423  27.006  0.00  0.00    +0.000 HD
ENDBRANCH  20  23
BRANCH  20  25
ATOM     25  C20 UNL     1     -13.794   0.689  28.726  0.00  0.00    +0.000 C 
ATOM     26  O4  UNL     1     -12.962   1.603  28.729  0.00  0.00    +0.000 OA
BRANCH  25  27
ATOM     27  C21 UNL     1     -13.518  -0.612  29.484  0.00  0.00    +0.000 C 
BRANCH  27  28
ATOM     28  O5  UNL     1     -12.539  -0.451  30.503  0.00  0.00    +0.000 OA
ATOM     29  H30 UNL     1     -11.707  -0.824  30.144  0.00  0.00    +0.000 HD
ENDBRANCH  27  28
ENDBRANCH  25  27
ENDBRANCH  20  25
TORSDOF 5
ENDMDL
MODEL 8
REMARK VINA RESULT:    -5.821      3.916      5.985
REMARK INTER + INTRA:          -7.250
REMARK INTER:                  -6.924
REMARK INTRA:                  -0.326
REMARK UNBOUND:                -0.239
REMARK  Name = C:\Users\sofiya chavarekar\OneDrive\Assignment- Module 1\PROJECT(AI-based drug target identification for SDH-related rare disorders)\Data\Ligands\PDB\Ligand_0101.pdb
REMARK  7 active torsions:
REMARK  status: ('A' for Active; 'I' for Inactive)
REMARK    1  A    between atoms: C1_1  and  C2_2
REMARK    2  A    between atoms: C12_13  and  O2_14
REMARK    3  A    between atoms: C14_16  and  C15_17
REMARK    4  A    between atoms: C19_21  and  O3_22
REMARK    5  A    between atoms: C19_21  and  C20_23
REMARK    6  A    between atoms: C20_23  and  C21_25
REMARK    7  A    between atoms: C21_25  and  O5_26
REMARK                            x       y       z     vdW  Elec       q    Type
REMARK                         _______ _______ _______ _____ _____    ______ ____
ROOT
ATOM      1  C1  UNL     1     -21.151   0.142  25.734  0.00  0.00    +0.000 C 
ATOM      2  C2  UNL     1     -20.205  -0.987  26.254  0.00  0.00    +0.000 C 
ATOM      3  C3  UNL     1     -18.987  -1.037  25.287  0.00  0.00    +0.000 C 
ATOM      4  C4  UNL     1     -19.322  -1.686  23.953  0.00  0.00    +0.000 C 
ATOM      5  C5  UNL     1     -19.794  -3.091  24.225  0.00  0.00    +0.000 C 
ATOM      6  O1  UNL     1     -19.464  -4.050  23.535  0.00  0.00    +0.000 OA
ATOM      7  C6  UNL     1     -20.769  -3.279  25.327  0.00  0.00    +0.000 C 
ATOM      8  C7  UNL     1     -21.006  -2.293  26.212  0.00  0.00    +0.000 C 
ATOM      9  C8  UNL     1     -22.163  -2.441  27.182  0.00  0.00    +0.000 C 
ATOM     10  C9  UNL     1     -22.043  -1.579  28.438  0.00  0.00    +0.000 C 
ATOM     11  C10 UNL     1     -20.584  -1.413  28.833  0.00  0.00    +0.000 C 
ATOM     12  C11 UNL     1     -19.777  -0.634  27.736  0.00  0.00    +0.000 C 
ATOM     13  C12 UNL     1     -18.269  -0.656  28.123  0.00  0.00    +0.000 C 
ATOM     14  C13 UNL     1     -18.044  -0.036  29.532  0.00  0.00    +0.000 C 
ATOM     15  C14 UNL     1     -18.912  -0.687  30.655  0.00  0.00    +0.000 C 
ATOM     16  C15 UNL     1     -18.370  -2.123  30.923  0.00  0.00    +0.000 C 
ATOM     17  C16 UNL     1     -20.374  -0.634  30.130  0.00  0.00    +0.000 C 
ATOM     18  C17 UNL     1     -21.211  -0.883  31.373  0.00  0.00    +0.000 C 
ATOM     19  C18 UNL     1     -20.590   0.173  32.303  0.00  0.00    +0.000 C 
ATOM     20  C19 UNL     1     -19.055   0.096  32.029  0.00  0.00    +0.000 C 
ENDROOT
BRANCH  13  21
ATOM     21  O2  UNL     1     -17.710  -1.963  28.115  0.00  0.00    +0.000 OA
ATOM     22  H16 UNL     1     -18.418  -2.624  28.034  0.00  0.00    +0.000 HD
ENDBRANCH  13  21
BRANCH  20  23
ATOM     23  O3  UNL     1     -18.467  -0.614  33.124  0.00  0.00    +0.000 OA
ATOM     24  H27 UNL     1     -18.342  -1.541  32.873  0.00  0.00    +0.000 HD
ENDBRANCH  20  23
BRANCH  20  25
ATOM     25  C20 UNL     1     -18.398   1.485  31.992  0.00  0.00    +0.000 C 
ATOM     26  O4  UNL     1     -18.912   2.456  31.426  0.00  0.00    +0.000 OA
BRANCH  25  27
ATOM     27  C21 UNL     1     -16.987   1.590  32.580  0.00  0.00    +0.000 C 
BRANCH  27  28
ATOM     28  O5  UNL     1     -16.998   1.743  33.993  0.00  0.00    +0.000 OA
ATOM     29  H30 UNL     1     -16.288   2.384  34.205  0.00  0.00    +0.000 HD
ENDBRANCH  27  28
ENDBRANCH  25  27
ENDBRANCH  20  25
TORSDOF 5
ENDMDL
MODEL 9
REMARK VINA RESULT:    -5.668      3.014      4.322
REMARK INTER + INTRA:          -7.066
REMARK INTER:                  -6.733
REMARK INTRA:                  -0.333
REMARK UNBOUND:                -0.239
REMARK  Name = C:\Users\sofiya chavarekar\OneDrive\Assignment- Module 1\PROJECT(AI-based drug target identification for SDH-related rare disorders)\Data\Ligands\PDB\Ligand_0101.pdb
REMARK  7 active torsions:
REMARK  status: ('A' for Active; 'I' for Inactive)
REMARK    1  A    between atoms: C1_1  and  C2_2
REMARK    2  A    between atoms: C12_13  and  O2_14
REMARK    3  A    between atoms: C14_16  and  C15_17
REMARK    4  A    between atoms: C19_21  and  O3_22
REMARK    5  A    between atoms: C19_21  and  C20_23
REMARK    6  A    between atoms: C20_23  and  C21_25
REMARK    7  A    between atoms: C21_25  and  O5_26
REMARK                            x       y       z     vdW  Elec       q    Type
REMARK                         _______ _______ _______ _____ _____    ______ ____
ROOT
ATOM      1  C1  UNL     1     -20.994   0.644  27.023  0.00  0.00    +0.000 C 
ATOM      2  C2  UNL     1     -19.434   0.592  26.946  0.00  0.00    +0.000 C 
ATOM      3  C3  UNL     1     -18.986   1.782  26.049  0.00  0.00    +0.000 C 
ATOM      4  C4  UNL     1     -19.246   1.534  24.571  0.00  0.00    +0.000 C 
ATOM      5  C5  UNL     1     -18.486   0.298  24.167  0.00  0.00    +0.000 C 
ATOM      6  O1  UNL     1     -17.877   0.208  23.106  0.00  0.00    +0.000 OA
ATOM      7  C6  UNL     1     -18.568  -0.876  25.070  0.00  0.00    +0.000 C 
ATOM      8  C7  UNL     1     -19.065  -0.754  26.314  0.00  0.00    +0.000 C 
ATOM      9  C8  UNL     1     -19.338  -2.009  27.120  0.00  0.00    +0.000 C 
ATOM     10  C9  UNL     1     -19.388  -1.786  28.632  0.00  0.00    +0.000 C 
ATOM     11  C10 UNL     1     -18.434  -0.673  29.037  0.00  0.00    +0.000 C 
ATOM     12  C11 UNL     1     -18.860   0.703  28.416  0.00  0.00    +0.000 C 
ATOM     13  C12 UNL     1     -17.750   1.750  28.727  0.00  0.00    +0.000 C 
ATOM     14  C13 UNL     1     -17.513   1.875  30.260  0.00  0.00    +0.000 C 
ATOM     15  C14 UNL     1     -17.203   0.516  30.965  0.00  0.00    +0.000 C 
ATOM     16  C15 UNL     1     -15.782   0.049  30.527  0.00  0.00    +0.000 C 
ATOM     17  C16 UNL     1     -18.356  -0.439  30.545  0.00  0.00    +0.000 C 
ATOM     18  C17 UNL     1     -18.258  -1.581  31.542  0.00  0.00    +0.000 C 
ATOM     19  C18 UNL     1     -18.244  -0.766  32.846  0.00  0.00    +0.000 C 
ATOM     20  C19 UNL     1     -17.323   0.457  32.547  0.00  0.00    +0.000 C 
ENDROOT
BRANCH  13  21
ATOM     21  O2  UNL     1     -16.508   1.447  28.106  0.00  0.00    +0.000 OA
ATOM     22  H16 UNL     1     -16.637   1.328  27.150  0.00  0.00    +0.000 HD
ENDBRANCH  13  21
BRANCH  20  23
ATOM     23  O3  UNL     1     -16.064   0.202  33.178  0.00  0.00    +0.000 OA
ATOM     24  H27 UNL     1     -15.700  -0.630  32.842  0.00  0.00    +0.000 HD
ENDBRANCH  20  23
BRANCH  20  25
ATOM     25  C20 UNL     1     -17.869   1.762  33.149  0.00  0.00    +0.000 C 
ATOM     26  O4  UNL     1     -19.072   2.044  33.160  0.00  0.00    +0.000 OA
BRANCH  25  27
ATOM     27  C21 UNL     1     -16.831   2.783  33.625  0.00  0.00    +0.000 C 
BRANCH  27  28
ATOM     28  O5  UNL     1     -16.412   2.549  34.963  0.00  0.00    +0.000 OA
ATOM     29  H30 UNL     1     -15.883   3.331  35.225  0.00  0.00    +0.000 HD
ENDBRANCH  27  28
ENDBRANCH  25  27
ENDBRANCH  20  25
TORSDOF 5
ENDMDL
