MODEL 1
REMARK VINA RESULT:    -4.825      0.000      0.000
REMARK INTER + INTRA:          -5.269
REMARK INTER:                  -5.248
REMARK INTRA:                  -0.021
REMARK UNBOUND:                -0.021
REMARK  Name = C:\Users\sofiya chavarekar\OneDrive\Assignment- Module 1\PROJECT(AI-based drug target identification for SDH-related rare disorders)\Data\Ligands\PDB\Ligand_0068.pdb
REMARK  3 active torsions:
REMARK  status: ('A' for Active; 'I' for Inactive)
REMARK    1  A    between atoms: C_1  and  C_2
REMARK    2  A    between atoms: C_5  and  C_6
REMARK    3  A    between atoms: C_6  and  O_7
REMARK                            x       y       z     vdW  Elec       q    Type
REMARK                         _______ _______ _______ _____ _____    ______ ____
ROOT
ATOM      1  C   UNL     1     -14.186   7.812  26.088  0.00  0.00    +0.000 C 
ATOM      2  C   UNL     1     -13.007   6.895  25.963  0.00  0.00    +0.000 A 
ATOM      3  C   UNL     1     -11.964   7.182  25.075  0.00  0.00    +0.000 A 
ATOM      4  C   UNL     1     -10.862   6.328  24.974  0.00  0.00    +0.000 A 
ATOM      5  C   UNL     1     -10.780   5.175  25.764  0.00  0.00    +0.000 A 
ATOM      6  C   UNL     1     -11.829   4.886  26.648  0.00  0.00    +0.000 A 
ATOM      7  C   UNL     1     -12.929   5.739  26.748  0.00  0.00    +0.000 A 
ENDROOT
BRANCH   5   8
ATOM      8  C   UNL     1      -9.598   4.249  25.659  0.00  0.00    +0.000 C 
BRANCH   8   9
ATOM      9  O   UNL     1      -9.104   4.220  24.327  0.00  0.00    +0.000 OA
ATOM     10  H   UNL     1      -8.441   4.930  24.259  0.00  0.00    +0.000 HD
ENDBRANCH   8   9
ENDBRANCH   5   8
TORSDOF 2
ENDMDL
MODEL 2
REMARK VINA RESULT:    -4.660      2.526      4.068
REMARK INTER + INTRA:          -5.089
REMARK INTER:                  -5.066
REMARK INTRA:                  -0.023
REMARK UNBOUND:                -0.021
REMARK  Name = C:\Users\sofiya chavarekar\OneDrive\Assignment- Module 1\PROJECT(AI-based drug target identification for SDH-related rare disorders)\Data\Ligands\PDB\Ligand_0068.pdb
REMARK  3 active torsions:
REMARK  status: ('A' for Active; 'I' for Inactive)
REMARK    1  A    between atoms: C_1  and  C_2
REMARK    2  A    between atoms: C_5  and  C_6
REMARK    3  A    between atoms: C_6  and  O_7
REMARK                            x       y       z     vdW  Elec       q    Type
REMARK                         _______ _______ _______ _____ _____    ______ ____
ROOT
ATOM      1  C   UNL     1      -9.957   4.659  25.738  0.00  0.00    +0.000 C 
ATOM      2  C   UNL     1     -11.154   5.558  25.805  0.00  0.00    +0.000 A 
ATOM      3  C   UNL     1     -11.313   6.614  24.900  0.00  0.00    +0.000 A 
ATOM      4  C   UNL     1     -12.438   7.439  24.962  0.00  0.00    +0.000 A 
ATOM      5  C   UNL     1     -13.429   7.222  25.927  0.00  0.00    +0.000 A 
ATOM      6  C   UNL     1     -13.265   6.168  26.838  0.00  0.00    +0.000 A 
ATOM      7  C   UNL     1     -12.140   5.344  26.775  0.00  0.00    +0.000 A 
ENDROOT
BRANCH   5   8
ATOM      8  C   UNL     1     -14.643   8.109  26.003  0.00  0.00    +0.000 C 
BRANCH   8   9
ATOM      9  O   UNL     1     -14.455   9.279  25.218  0.00  0.00    +0.000 OA
ATOM     10  H   UNL     1     -15.342   9.622  25.011  0.00  0.00    +0.000 HD
ENDBRANCH   8   9
ENDBRANCH   5   8
TORSDOF 2
ENDMDL
MODEL 3
REMARK VINA RESULT:    -4.643      2.579      4.392
REMARK INTER + INTRA:          -5.071
REMARK INTER:                  -5.047
REMARK INTRA:                  -0.024
REMARK UNBOUND:                -0.021
REMARK  Name = C:\Users\sofiya chavarekar\OneDrive\Assignment- Module 1\PROJECT(AI-based drug target identification for SDH-related rare disorders)\Data\Ligands\PDB\Ligand_0068.pdb
REMARK  3 active torsions:
REMARK  status: ('A' for Active; 'I' for Inactive)
REMARK    1  A    between atoms: C_1  and  C_2
REMARK    2  A    between atoms: C_5  and  C_6
REMARK    3  A    between atoms: C_6  and  O_7
REMARK                            x       y       z     vdW  Elec       q    Type
REMARK                         _______ _______ _______ _____ _____    ______ ____
ROOT
ATOM      1  C   UNL     1      -9.976   4.672  25.882  0.00  0.00    +0.000 C 
ATOM      2  C   UNL     1     -11.282   5.407  25.930  0.00  0.00    +0.000 A 
ATOM      3  C   UNL     1     -12.347   4.932  26.704  0.00  0.00    +0.000 A 
ATOM      4  C   UNL     1     -13.556   5.630  26.753  0.00  0.00    +0.000 A 
ATOM      5  C   UNL     1     -13.721   6.820  26.033  0.00  0.00    +0.000 A 
ATOM      6  C   UNL     1     -12.656   7.290  25.252  0.00  0.00    +0.000 A 
ATOM      7  C   UNL     1     -11.448   6.591  25.203  0.00  0.00    +0.000 A 
ENDROOT
BRANCH   5   8
ATOM      8  C   UNL     1     -15.022   7.576  26.077  0.00  0.00    +0.000 C 
BRANCH   8   9
ATOM      9  O   UNL     1     -14.865   8.870  25.510  0.00  0.00    +0.000 OA
ATOM     10  H   UNL     1     -15.747   9.153  25.211  0.00  0.00    +0.000 HD
ENDBRANCH   8   9
ENDBRANCH   5   8
TORSDOF 2
ENDMDL
MODEL 4
REMARK VINA RESULT:    -4.229      2.617      3.797
REMARK INTER + INTRA:          -4.620
REMARK INTER:                  -4.597
REMARK INTRA:                  -0.023
REMARK UNBOUND:                -0.021
REMARK  Name = C:\Users\sofiya chavarekar\OneDrive\Assignment- Module 1\PROJECT(AI-based drug target identification for SDH-related rare disorders)\Data\Ligands\PDB\Ligand_0068.pdb
REMARK  3 active torsions:
REMARK  status: ('A' for Active; 'I' for Inactive)
REMARK    1  A    between atoms: C_1  and  C_2
REMARK    2  A    between atoms: C_5  and  C_6
REMARK    3  A    between atoms: C_6  and  O_7
REMARK                            x       y       z     vdW  Elec       q    Type
REMARK                         _______ _______ _______ _____ _____    ______ ____
ROOT
ATOM      1  C   UNL     1     -10.780   7.031  24.208  0.00  0.00    +0.000 C 
ATOM      2  C   UNL     1     -11.828   6.624  25.199  0.00  0.00    +0.000 A 
ATOM      3  C   UNL     1     -13.117   7.166  25.147  0.00  0.00    +0.000 A 
ATOM      4  C   UNL     1     -14.091   6.771  26.068  0.00  0.00    +0.000 A 
ATOM      5  C   UNL     1     -13.796   5.823  27.055  0.00  0.00    +0.000 A 
ATOM      6  C   UNL     1     -12.502   5.286  27.110  0.00  0.00    +0.000 A 
ATOM      7  C   UNL     1     -11.529   5.682  26.190  0.00  0.00    +0.000 A 
ENDROOT
BRANCH   5   8
ATOM      8  C   UNL     1     -14.838   5.395  28.052  0.00  0.00    +0.000 C 
BRANCH   8   9
ATOM      9  O   UNL     1     -14.230   4.756  29.167  0.00  0.00    +0.000 OA
ATOM     10  H   UNL     1     -13.310   4.564  28.912  0.00  0.00    +0.000 HD
ENDBRANCH   8   9
ENDBRANCH   5   8
TORSDOF 2
ENDMDL
MODEL 5
REMARK VINA RESULT:    -4.162      1.770      2.713
REMARK INTER + INTRA:          -4.547
REMARK INTER:                  -4.524
REMARK INTRA:                  -0.023
REMARK UNBOUND:                -0.021
REMARK  Name = C:\Users\sofiya chavarekar\OneDrive\Assignment- Module 1\PROJECT(AI-based drug target identification for SDH-related rare disorders)\Data\Ligands\PDB\Ligand_0068.pdb
REMARK  3 active torsions:
REMARK  status: ('A' for Active; 'I' for Inactive)
REMARK    1  A    between atoms: C_1  and  C_2
REMARK    2  A    between atoms: C_5  and  C_6
REMARK    3  A    between atoms: C_6  and  O_7
REMARK                            x       y       z     vdW  Elec       q    Type
REMARK                         _______ _______ _______ _____ _____    ______ ____
ROOT
ATOM      1  C   UNL     1     -15.796   6.008  27.526  0.00  0.00    +0.000 C 
ATOM      2  C   UNL     1     -14.488   6.174  26.813  0.00  0.00    +0.000 A 
ATOM      3  C   UNL     1     -13.446   5.258  26.999  0.00  0.00    +0.000 A 
ATOM      4  C   UNL     1     -12.235   5.414  26.320  0.00  0.00    +0.000 A 
ATOM      5  C   UNL     1     -12.044   6.486  25.439  0.00  0.00    +0.000 A 
ATOM      6  C   UNL     1     -13.086   7.407  25.261  0.00  0.00    +0.000 A 
ATOM      7  C   UNL     1     -14.296   7.250  25.940  0.00  0.00    +0.000 A 
ENDROOT
BRANCH   5   8
ATOM      8  C   UNL     1     -10.741   6.663  24.708  0.00  0.00    +0.000 C 
BRANCH   8   9
ATOM      9  O   UNL     1     -10.916   7.503  23.574  0.00  0.00    +0.000 OA
ATOM     10  H   UNL     1     -11.797   7.908  23.659  0.00  0.00    +0.000 HD
ENDBRANCH   8   9
ENDBRANCH   5   8
TORSDOF 2
ENDMDL
MODEL 6
REMARK VINA RESULT:    -4.006      1.631      2.199
REMARK INTER + INTRA:          -4.377
REMARK INTER:                  -4.354
REMARK INTRA:                  -0.024
REMARK UNBOUND:                -0.021
REMARK  Name = C:\Users\sofiya chavarekar\OneDrive\Assignment- Module 1\PROJECT(AI-based drug target identification for SDH-related rare disorders)\Data\Ligands\PDB\Ligand_0068.pdb
REMARK  3 active torsions:
REMARK  status: ('A' for Active; 'I' for Inactive)
REMARK    1  A    between atoms: C_1  and  C_2
REMARK    2  A    between atoms: C_5  and  C_6
REMARK    3  A    between atoms: C_6  and  O_7
REMARK                            x       y       z     vdW  Elec       q    Type
REMARK                         _______ _______ _______ _____ _____    ______ ____
ROOT
ATOM      1  C   UNL     1     -16.434   6.020  27.202  0.00  0.00    +0.000 C 
ATOM      2  C   UNL     1     -15.007   5.996  26.742  0.00  0.00    +0.000 A 
ATOM      3  C   UNL     1     -14.465   7.066  26.020  0.00  0.00    +0.000 A 
ATOM      4  C   UNL     1     -13.131   7.040  25.606  0.00  0.00    +0.000 A 
ATOM      5  C   UNL     1     -12.311   5.945  25.911  0.00  0.00    +0.000 A 
ATOM      6  C   UNL     1     -12.858   4.871  26.627  0.00  0.00    +0.000 A 
ATOM      7  C   UNL     1     -14.192   4.898  27.040  0.00  0.00    +0.000 A 
ENDROOT
BRANCH   5   8
ATOM      8  C   UNL     1     -10.874   5.908  25.466  0.00  0.00    +0.000 C 
BRANCH   8   9
ATOM      9  O   UNL     1     -10.197   4.809  26.060  0.00  0.00    +0.000 OA
ATOM     10  H   UNL     1      -9.840   5.126  26.909  0.00  0.00    +0.000 HD
ENDBRANCH   8   9
ENDBRANCH   5   8
TORSDOF 2
ENDMDL
MODEL 7
REMARK VINA RESULT:    -3.926      5.442      6.393
REMARK INTER + INTRA:          -4.291
REMARK INTER:                  -4.270
REMARK INTRA:                  -0.021
REMARK UNBOUND:                -0.021
REMARK  Name = C:\Users\sofiya chavarekar\OneDrive\Assignment- Module 1\PROJECT(AI-based drug target identification for SDH-related rare disorders)\Data\Ligands\PDB\Ligand_0068.pdb
REMARK  3 active torsions:
REMARK  status: ('A' for Active; 'I' for Inactive)
REMARK    1  A    between atoms: C_1  and  C_2
REMARK    2  A    between atoms: C_5  and  C_6
REMARK    3  A    between atoms: C_6  and  O_7
REMARK                            x       y       z     vdW  Elec       q    Type
REMARK                         _______ _______ _______ _____ _____    ______ ____
ROOT
ATOM      1  C   UNL     1     -15.437   3.476  26.421  0.00  0.00    +0.000 C 
ATOM      2  C   UNL     1     -14.881   2.350  27.239  0.00  0.00    +0.000 A 
ATOM      3  C   UNL     1     -15.550   1.124  27.325  0.00  0.00    +0.000 A 
ATOM      4  C   UNL     1     -15.017   0.076  28.080  0.00  0.00    +0.000 A 
ATOM      5  C   UNL     1     -13.803   0.232  28.759  0.00  0.00    +0.000 A 
ATOM      6  C   UNL     1     -13.138   1.464  28.678  0.00  0.00    +0.000 A 
ATOM      7  C   UNL     1     -13.671   2.511  27.924  0.00  0.00    +0.000 A 
ENDROOT
BRANCH   5   8
ATOM      8  C   UNL     1     -13.224  -0.891  29.578  0.00  0.00    +0.000 C 
BRANCH   8   9
ATOM      9  O   UNL     1     -12.527  -0.378  30.706  0.00  0.00    +0.000 OA
ATOM     10  H   UNL     1     -12.767  -0.941  31.463  0.00  0.00    +0.000 HD
ENDBRANCH   8   9
ENDBRANCH   5   8
TORSDOF 2
ENDMDL
MODEL 8
REMARK VINA RESULT:    -3.884      3.463      4.944
REMARK INTER + INTRA:          -4.245
REMARK INTER:                  -4.230
REMARK INTRA:                  -0.015
REMARK UNBOUND:                -0.021
REMARK  Name = C:\Users\sofiya chavarekar\OneDrive\Assignment- Module 1\PROJECT(AI-based drug target identification for SDH-related rare disorders)\Data\Ligands\PDB\Ligand_0068.pdb
REMARK  3 active torsions:
REMARK  status: ('A' for Active; 'I' for Inactive)
REMARK    1  A    between atoms: C_1  and  C_2
REMARK    2  A    between atoms: C_5  and  C_6
REMARK    3  A    between atoms: C_6  and  O_7
REMARK                            x       y       z     vdW  Elec       q    Type
REMARK                         _______ _______ _______ _____ _____    ______ ____
ROOT
ATOM      1  C   UNL     1     -14.053   3.404  27.147  0.00  0.00    +0.000 C 
ATOM      2  C   UNL     1     -14.195   4.875  26.899  0.00  0.00    +0.000 A 
ATOM      3  C   UNL     1     -15.438   5.508  27.013  0.00  0.00    +0.000 A 
ATOM      4  C   UNL     1     -15.559   6.882  26.792  0.00  0.00    +0.000 A 
ATOM      5  C   UNL     1     -14.437   7.651  26.457  0.00  0.00    +0.000 A 
ATOM      6  C   UNL     1     -13.194   7.014  26.336  0.00  0.00    +0.000 A 
ATOM      7  C   UNL     1     -13.074   5.641  26.557  0.00  0.00    +0.000 A 
ENDROOT
BRANCH   5   8
ATOM      8  C   UNL     1     -14.559   9.131  26.214  0.00  0.00    +0.000 C 
BRANCH   8   9
ATOM      9  O   UNL     1     -14.801   9.819  27.434  0.00  0.00    +0.000 OA
ATOM     10  H   UNL     1     -14.099   9.547  28.052  0.00  0.00    +0.000 HD
ENDBRANCH   8   9
ENDBRANCH   5   8
TORSDOF 2
ENDMDL
MODEL 9
REMARK VINA RESULT:    -3.879      3.081      4.461
REMARK INTER + INTRA:          -4.240
REMARK INTER:                  -4.218
REMARK INTRA:                  -0.021
REMARK UNBOUND:                -0.021
REMARK  Name = C:\Users\sofiya chavarekar\OneDrive\Assignment- Module 1\PROJECT(AI-based drug target identification for SDH-related rare disorders)\Data\Ligands\PDB\Ligand_0068.pdb
REMARK  3 active torsions:
REMARK  status: ('A' for Active; 'I' for Inactive)
REMARK    1  A    between atoms: C_1  and  C_2
REMARK    2  A    between atoms: C_5  and  C_6
REMARK    3  A    between atoms: C_6  and  O_7
REMARK                            x       y       z     vdW  Elec       q    Type
REMARK                         _______ _______ _______ _____ _____    ______ ____
ROOT
ATOM      1  C   UNL     1     -10.817   6.697  24.753  0.00  0.00    +0.000 C 
ATOM      2  C   UNL     1     -12.070   6.433  25.532  0.00  0.00    +0.000 A 
ATOM      3  C   UNL     1     -12.198   5.285  26.322  0.00  0.00    +0.000 A 
ATOM      4  C   UNL     1     -13.365   5.054  27.055  0.00  0.00    +0.000 A 
ATOM      5  C   UNL     1     -14.425   5.968  27.015  0.00  0.00    +0.000 A 
ATOM      6  C   UNL     1     -14.298   7.114  26.216  0.00  0.00    +0.000 A 
ATOM      7  C   UNL     1     -13.131   7.344  25.485  0.00  0.00    +0.000 A 
ENDROOT
BRANCH   5   8
ATOM      8  C   UNL     1     -15.687   5.724  27.797  0.00  0.00    +0.000 C 
BRANCH   8   9
ATOM      9  O   UNL     1     -16.812   6.254  27.108  0.00  0.00    +0.000 OA
ATOM     10  H   UNL     1     -17.603   5.892  27.544  0.00  0.00    +0.000 HD
ENDBRANCH   8   9
ENDBRANCH   5   8
TORSDOF 2
ENDMDL
