MODEL 1
REMARK VINA RESULT:    -3.952      0.000      0.000
REMARK INTER + INTRA:          -3.952
REMARK INTER:                  -3.952
REMARK INTRA:                   0.000
REMARK UNBOUND:                 0.000
REMARK  Name = C:\Users\sofiya chavarekar\OneDrive\Assignment- Module 1\PROJECT(AI-based drug target identification for SDH-related rare disorders)\Data\Ligands\PDB\Ligand_0038.pdb
REMARK  0 active torsions:
REMARK  status: ('A' for Active; 'I' for Inactive)
REMARK                            x       y       z     vdW  Elec       q    Type
REMARK                         _______ _______ _______ _____ _____    ______ ____
ROOT
ATOM      1 BR   UNL     1     -15.327   4.717  26.756  0.00  0.00    +0.000 Br
ATOM      2  C   UNL     1     -13.689   5.464  26.180  0.00  0.00    +0.000 A 
ATOM      3  C   UNL     1     -12.486   4.874  26.567  0.00  0.00    +0.000 A 
ATOM      4  C   UNL     1     -11.277   5.430  26.146  0.00  0.00    +0.000 A 
ATOM      5  C   UNL     1     -11.275   6.570  25.341  0.00  0.00    +0.000 A 
ATOM      6  C   UNL     1     -12.482   7.156  24.956  0.00  0.00    +0.000 A 
ATOM      7  C   UNL     1     -13.692   6.603  25.375  0.00  0.00    +0.000 A 
ENDROOT
TORSDOF 0
ENDMDL
MODEL 2
REMARK VINA RESULT:    -3.941      0.273      1.843
REMARK INTER + INTRA:          -3.941
REMARK INTER:                  -3.941
REMARK INTRA:                   0.000
REMARK UNBOUND:                 0.000
REMARK  Name = C:\Users\sofiya chavarekar\OneDrive\Assignment- Module 1\PROJECT(AI-based drug target identification for SDH-related rare disorders)\Data\Ligands\PDB\Ligand_0038.pdb
REMARK  0 active torsions:
REMARK  status: ('A' for Active; 'I' for Inactive)
REMARK                            x       y       z     vdW  Elec       q    Type
REMARK                         _______ _______ _______ _____ _____    ______ ____
ROOT
ATOM      1 BR   UNL     1     -15.165   4.225  26.660  0.00  0.00    +0.000 Br
ATOM      2  C   UNL     1     -13.652   5.234  26.140  0.00  0.00    +0.000 A 
ATOM      3  C   UNL     1     -13.822   6.397  25.388  0.00  0.00    +0.000 A 
ATOM      4  C   UNL     1     -12.704   7.137  25.001  0.00  0.00    +0.000 A 
ATOM      5  C   UNL     1     -11.426   6.715  25.365  0.00  0.00    +0.000 A 
ATOM      6  C   UNL     1     -11.262   5.552  26.120  0.00  0.00    +0.000 A 
ATOM      7  C   UNL     1     -12.376   4.809  26.509  0.00  0.00    +0.000 A 
ENDROOT
TORSDOF 0
ENDMDL
MODEL 3
REMARK VINA RESULT:    -3.856      2.132      2.782
REMARK INTER + INTRA:          -3.856
REMARK INTER:                  -3.856
REMARK INTRA:                   0.000
REMARK UNBOUND:                 0.000
REMARK  Name = C:\Users\sofiya chavarekar\OneDrive\Assignment- Module 1\PROJECT(AI-based drug target identification for SDH-related rare disorders)\Data\Ligands\PDB\Ligand_0038.pdb
REMARK  0 active torsions:
REMARK  status: ('A' for Active; 'I' for Inactive)
REMARK                            x       y       z     vdW  Elec       q    Type
REMARK                         _______ _______ _______ _____ _____    ______ ____
ROOT
ATOM      1 BR   UNL     1      -9.958   4.608  25.913  0.00  0.00    +0.000 Br
ATOM      2  C   UNL     1     -11.664   5.421  25.975  0.00  0.00    +0.000 A 
ATOM      3  C   UNL     1     -12.709   4.784  26.645  0.00  0.00    +0.000 A 
ATOM      4  C   UNL     1     -13.969   5.383  26.685  0.00  0.00    +0.000 A 
ATOM      5  C   UNL     1     -14.180   6.611  26.058  0.00  0.00    +0.000 A 
ATOM      6  C   UNL     1     -13.130   7.245  25.390  0.00  0.00    +0.000 A 
ATOM      7  C   UNL     1     -11.869   6.649  25.348  0.00  0.00    +0.000 A 
ENDROOT
TORSDOF 0
ENDMDL
MODEL 4
REMARK VINA RESULT:    -3.832      2.112      3.121
REMARK INTER + INTRA:          -3.832
REMARK INTER:                  -3.832
REMARK INTRA:                   0.000
REMARK UNBOUND:                 0.000
REMARK  Name = C:\Users\sofiya chavarekar\OneDrive\Assignment- Module 1\PROJECT(AI-based drug target identification for SDH-related rare disorders)\Data\Ligands\PDB\Ligand_0038.pdb
REMARK  0 active torsions:
REMARK  status: ('A' for Active; 'I' for Inactive)
REMARK                            x       y       z     vdW  Elec       q    Type
REMARK                         _______ _______ _______ _____ _____    ______ ____
ROOT
ATOM      1 BR   UNL     1     -10.018   4.612  25.924  0.00  0.00    +0.000 Br
ATOM      2  C   UNL     1     -11.702   5.469  25.967  0.00  0.00    +0.000 A 
ATOM      3  C   UNL     1     -11.879   6.679  25.296  0.00  0.00    +0.000 A 
ATOM      4  C   UNL     1     -13.122   7.313  25.333  0.00  0.00    +0.000 A 
ATOM      5  C   UNL     1     -14.180   6.738  26.037  0.00  0.00    +0.000 A 
ATOM      6  C   UNL     1     -13.998   5.526  26.705  0.00  0.00    +0.000 A 
ATOM      7  C   UNL     1     -12.757   4.889  26.670  0.00  0.00    +0.000 A 
ENDROOT
TORSDOF 0
ENDMDL
MODEL 5
REMARK VINA RESULT:    -3.676      1.482      1.770
REMARK INTER + INTRA:          -3.676
REMARK INTER:                  -3.676
REMARK INTRA:                   0.000
REMARK UNBOUND:                 0.000
REMARK  Name = C:\Users\sofiya chavarekar\OneDrive\Assignment- Module 1\PROJECT(AI-based drug target identification for SDH-related rare disorders)\Data\Ligands\PDB\Ligand_0038.pdb
REMARK  0 active torsions:
REMARK  status: ('A' for Active; 'I' for Inactive)
REMARK                            x       y       z     vdW  Elec       q    Type
REMARK                         _______ _______ _______ _____ _____    ______ ____
ROOT
ATOM      1 BR   UNL     1     -14.696   7.989  26.313  0.00  0.00    +0.000 Br
ATOM      2  C   UNL     1     -13.112   7.009  25.985  0.00  0.00    +0.000 A 
ATOM      3  C   UNL     1     -12.784   5.932  26.808  0.00  0.00    +0.000 A 
ATOM      4  C   UNL     1     -11.612   5.213  26.568  0.00  0.00    +0.000 A 
ATOM      5  C   UNL     1     -10.776   5.572  25.510  0.00  0.00    +0.000 A 
ATOM      6  C   UNL     1     -11.110   6.650  24.689  0.00  0.00    +0.000 A 
ATOM      7  C   UNL     1     -12.281   7.371  24.926  0.00  0.00    +0.000 A 
ENDROOT
TORSDOF 0
ENDMDL
MODEL 6
REMARK VINA RESULT:    -3.351      1.808      2.582
REMARK INTER + INTRA:          -3.351
REMARK INTER:                  -3.351
REMARK INTRA:                   0.000
REMARK UNBOUND:                 0.000
REMARK  Name = C:\Users\sofiya chavarekar\OneDrive\Assignment- Module 1\PROJECT(AI-based drug target identification for SDH-related rare disorders)\Data\Ligands\PDB\Ligand_0038.pdb
REMARK  0 active torsions:
REMARK  status: ('A' for Active; 'I' for Inactive)
REMARK                            x       y       z     vdW  Elec       q    Type
REMARK                         _______ _______ _______ _____ _____    ______ ____
ROOT
ATOM      1 BR   UNL     1     -15.139   8.848  26.334  0.00  0.00    +0.000 Br
ATOM      2  C   UNL     1     -13.989   7.346  26.353  0.00  0.00    +0.000 A 
ATOM      3  C   UNL     1     -12.747   7.420  25.723  0.00  0.00    +0.000 A 
ATOM      4  C   UNL     1     -11.902   6.309  25.733  0.00  0.00    +0.000 A 
ATOM      5  C   UNL     1     -12.299   5.134  26.371  0.00  0.00    +0.000 A 
ATOM      6  C   UNL     1     -13.543   5.067  27.001  0.00  0.00    +0.000 A 
ATOM      7  C   UNL     1     -14.391   6.175  26.993  0.00  0.00    +0.000 A 
ENDROOT
TORSDOF 0
ENDMDL
MODEL 7
REMARK VINA RESULT:    -3.205      1.411      2.374
REMARK INTER + INTRA:          -3.205
REMARK INTER:                  -3.205
REMARK INTRA:                   0.000
REMARK UNBOUND:                 0.000
REMARK  Name = C:\Users\sofiya chavarekar\OneDrive\Assignment- Module 1\PROJECT(AI-based drug target identification for SDH-related rare disorders)\Data\Ligands\PDB\Ligand_0038.pdb
REMARK  0 active torsions:
REMARK  status: ('A' for Active; 'I' for Inactive)
REMARK                            x       y       z     vdW  Elec       q    Type
REMARK                         _______ _______ _______ _____ _____    ______ ____
ROOT
ATOM      1 BR   UNL     1     -16.811   6.403  27.345  0.00  0.00    +0.000 Br
ATOM      2  C   UNL     1     -15.002   6.210  26.829  0.00  0.00    +0.000 A 
ATOM      3  C   UNL     1     -14.314   7.302  26.299  0.00  0.00    +0.000 A 
ATOM      4  C   UNL     1     -12.980   7.156  25.914  0.00  0.00    +0.000 A 
ATOM      5  C   UNL     1     -12.341   5.925  26.060  0.00  0.00    +0.000 A 
ATOM      6  C   UNL     1     -13.034   4.836  26.592  0.00  0.00    +0.000 A 
ATOM      7  C   UNL     1     -14.367   4.978  26.979  0.00  0.00    +0.000 A 
ENDROOT
TORSDOF 0
ENDMDL
MODEL 8
REMARK VINA RESULT:    -3.120      1.630      2.470
REMARK INTER + INTRA:          -3.120
REMARK INTER:                  -3.120
REMARK INTRA:                   0.000
REMARK UNBOUND:                 0.000
REMARK  Name = C:\Users\sofiya chavarekar\OneDrive\Assignment- Module 1\PROJECT(AI-based drug target identification for SDH-related rare disorders)\Data\Ligands\PDB\Ligand_0038.pdb
REMARK  0 active torsions:
REMARK  status: ('A' for Active; 'I' for Inactive)
REMARK                            x       y       z     vdW  Elec       q    Type
REMARK                         _______ _______ _______ _____ _____    ______ ____
ROOT
ATOM      1 BR   UNL     1     -15.185   3.678  26.519  0.00  0.00    +0.000 Br
ATOM      2  C   UNL     1     -14.765   5.517  26.388  0.00  0.00    +0.000 A 
ATOM      3  C   UNL     1     -13.577   5.913  25.774  0.00  0.00    +0.000 A 
ATOM      4  C   UNL     1     -13.267   7.271  25.684  0.00  0.00    +0.000 A 
ATOM      5  C   UNL     1     -14.142   8.224  26.204  0.00  0.00    +0.000 A 
ATOM      6  C   UNL     1     -15.331   7.822  26.816  0.00  0.00    +0.000 A 
ATOM      7  C   UNL     1     -15.645   6.466  26.908  0.00  0.00    +0.000 A 
ENDROOT
TORSDOF 0
ENDMDL
MODEL 9
REMARK VINA RESULT:    -2.860      9.942     10.973
REMARK INTER + INTRA:          -2.860
REMARK INTER:                  -2.860
REMARK INTRA:                   0.000
REMARK UNBOUND:                 0.000
REMARK  Name = C:\Users\sofiya chavarekar\OneDrive\Assignment- Module 1\PROJECT(AI-based drug target identification for SDH-related rare disorders)\Data\Ligands\PDB\Ligand_0038.pdb
REMARK  0 active torsions:
REMARK  status: ('A' for Active; 'I' for Inactive)
REMARK                            x       y       z     vdW  Elec       q    Type
REMARK                         _______ _______ _______ _____ _____    ______ ____
ROOT
ATOM      1 BR   UNL     1     -16.150  -0.075  33.139  0.00  0.00    +0.000 Br
ATOM      2  C   UNL     1     -17.646  -0.736  32.191  0.00  0.00    +0.000 A 
ATOM      3  C   UNL     1     -18.888  -0.803  32.821  0.00  0.00    +0.000 A 
ATOM      4  C   UNL     1     -19.991  -1.297  32.122  0.00  0.00    +0.000 A 
ATOM      5  C   UNL     1     -19.849  -1.718  30.799  0.00  0.00    +0.000 A 
ATOM      6  C   UNL     1     -18.603  -1.646  30.173  0.00  0.00    +0.000 A 
ATOM      7  C   UNL     1     -17.499  -1.154  30.869  0.00  0.00    +0.000 A 
ENDROOT
TORSDOF 0
ENDMDL
