MODEL 1
REMARK VINA RESULT:    -6.283      0.000      0.000
REMARK INTER + INTRA:          -6.283
REMARK INTER:                  -6.283
REMARK INTRA:                   0.000
REMARK UNBOUND:                 0.000
REMARK  Name = C:\Users\sofiya chavarekar\OneDrive\Assignment- Module 1\PROJECT(AI-based drug target identification for SDH-related rare disorders)\Data\Ligands\PDB\Ligand_0017.pdb
REMARK  2 active torsions:
REMARK  status: ('A' for Active; 'I' for Inactive)
REMARK    1  A    between atoms: C_1  and  C_2
REMARK    2  A    between atoms: C_9  and  C_10
REMARK                            x       y       z     vdW  Elec       q    Type
REMARK                         _______ _______ _______ _____ _____    ______ ____
ROOT
ATOM      1  C   UNL     1     -13.765   2.793  27.834  0.00  0.00    +0.000 C 
ATOM      2  C   UNL     1     -14.170   4.181  27.364  0.00  0.00    +0.000 A 
ATOM      3  C   UNL     1     -13.231   5.034  26.707  0.00  0.00    +0.000 A 
ATOM      4  C   UNL     1     -11.884   4.653  26.462  0.00  0.00    +0.000 A 
ATOM      5  C   UNL     1     -10.971   5.473  25.800  0.00  0.00    +0.000 A 
ATOM      6  C   UNL     1     -11.373   6.717  25.367  0.00  0.00    +0.000 A 
ATOM      7  C   UNL     1     -12.681   7.133  25.606  0.00  0.00    +0.000 A 
ATOM      8  C   UNL     1     -13.642   6.324  26.273  0.00  0.00    +0.000 A 
ATOM      9  C   UNL     1     -14.983   6.754  26.522  0.00  0.00    +0.000 A 
ATOM     10  C   UNL     1     -15.470   8.126  26.088  0.00  0.00    +0.000 C 
ATOM     11  C   UNL     1     -15.911   5.906  27.201  0.00  0.00    +0.000 A 
ATOM     12  C   UNL     1     -17.248   6.304  27.469  0.00  0.00    +0.000 A 
ATOM     13  C   UNL     1     -18.161   5.488  28.135  0.00  0.00    +0.000 A 
ATOM     14  C   UNL     1     -17.760   4.240  28.565  0.00  0.00    +0.000 A 
ATOM     15  C   UNL     1     -16.453   3.820  28.321  0.00  0.00    +0.000 A 
ATOM     16  C   UNL     1     -15.504   4.621  27.631  0.00  0.00    +0.000 A 
ENDROOT
TORSDOF 0
ENDMDL
MODEL 2
REMARK VINA RESULT:    -6.281      0.062      2.857
REMARK INTER + INTRA:          -6.281
REMARK INTER:                  -6.281
REMARK INTRA:                   0.000
REMARK UNBOUND:                 0.000
REMARK  Name = C:\Users\sofiya chavarekar\OneDrive\Assignment- Module 1\PROJECT(AI-based drug target identification for SDH-related rare disorders)\Data\Ligands\PDB\Ligand_0017.pdb
REMARK  2 active torsions:
REMARK  status: ('A' for Active; 'I' for Inactive)
REMARK    1  A    between atoms: C_1  and  C_2
REMARK    2  A    between atoms: C_9  and  C_10
REMARK                            x       y       z     vdW  Elec       q    Type
REMARK                         _______ _______ _______ _____ _____    ______ ____
ROOT
ATOM      1  C   UNL     1     -15.397   8.175  26.108  0.00  0.00    +0.000 C 
ATOM      2  C   UNL     1     -14.931   6.791  26.534  0.00  0.00    +0.000 A 
ATOM      3  C   UNL     1     -13.600   6.351  26.263  0.00  0.00    +0.000 A 
ATOM      4  C   UNL     1     -12.645   7.157  25.584  0.00  0.00    +0.000 A 
ATOM      5  C   UNL     1     -11.338   6.741  25.337  0.00  0.00    +0.000 A 
ATOM      6  C   UNL     1     -10.938   5.490  25.754  0.00  0.00    +0.000 A 
ATOM      7  C   UNL     1     -11.852   4.665  26.406  0.00  0.00    +0.000 A 
ATOM      8  C   UNL     1     -13.192   5.055  26.679  0.00  0.00    +0.000 A 
ATOM      9  C   UNL     1     -14.130   4.205  27.345  0.00  0.00    +0.000 A 
ATOM     10  C   UNL     1     -13.749   2.807  27.801  0.00  0.00    +0.000 C 
ATOM     11  C   UNL     1     -15.468   4.641  27.592  0.00  0.00    +0.000 A 
ATOM     12  C   UNL     1     -16.426   3.819  28.245  0.00  0.00    +0.000 A 
ATOM     13  C   UNL     1     -17.735   4.232  28.488  0.00  0.00    +0.000 A 
ATOM     14  C   UNL     1     -18.134   5.486  28.075  0.00  0.00    +0.000 A 
ATOM     15  C   UNL     1     -17.219   6.316  27.428  0.00  0.00    +0.000 A 
ATOM     16  C   UNL     1     -15.874   5.932  27.180  0.00  0.00    +0.000 A 
ENDROOT
TORSDOF 0
ENDMDL
MODEL 3
REMARK VINA RESULT:    -6.243      0.400      5.451
REMARK INTER + INTRA:          -6.243
REMARK INTER:                  -6.243
REMARK INTRA:                   0.000
REMARK UNBOUND:                 0.000
REMARK  Name = C:\Users\sofiya chavarekar\OneDrive\Assignment- Module 1\PROJECT(AI-based drug target identification for SDH-related rare disorders)\Data\Ligands\PDB\Ligand_0017.pdb
REMARK  2 active torsions:
REMARK  status: ('A' for Active; 'I' for Inactive)
REMARK    1  A    between atoms: C_1  and  C_2
REMARK    2  A    between atoms: C_9  and  C_10
REMARK                            x       y       z     vdW  Elec       q    Type
REMARK                         _______ _______ _______ _____ _____    ______ ____
ROOT
ATOM      1  C   UNL     1     -14.975   8.422  25.978  0.00  0.00    +0.000 C 
ATOM      2  C   UNL     1     -14.756   6.986  26.427  0.00  0.00    +0.000 A 
ATOM      3  C   UNL     1     -15.812   6.240  27.035  0.00  0.00    +0.000 A 
ATOM      4  C   UNL     1     -17.106   6.782  27.263  0.00  0.00    +0.000 A 
ATOM      5  C   UNL     1     -18.146   6.051  27.835  0.00  0.00    +0.000 A 
ATOM      6  C   UNL     1     -17.924   4.745  28.213  0.00  0.00    +0.000 A 
ATOM      7  C   UNL     1     -16.662   4.185  28.021  0.00  0.00    +0.000 A 
ATOM      8  C   UNL     1     -15.578   4.897  27.438  0.00  0.00    +0.000 A 
ATOM      9  C   UNL     1     -14.283   4.322  27.247  0.00  0.00    +0.000 A 
ATOM     10  C   UNL     1     -13.977   2.895  27.669  0.00  0.00    +0.000 C 
ATOM     11  C   UNL     1     -13.223   5.081  26.660  0.00  0.00    +0.000 A 
ATOM     12  C   UNL     1     -11.924   4.542  26.461  0.00  0.00    +0.000 A 
ATOM     13  C   UNL     1     -10.881   5.274  25.895  0.00  0.00    +0.000 A 
ATOM     14  C   UNL     1     -11.104   6.581  25.513  0.00  0.00    +0.000 A 
ATOM     15  C   UNL     1     -12.369   7.140  25.697  0.00  0.00    +0.000 A 
ATOM     16  C   UNL     1     -13.456   6.417  26.257  0.00  0.00    +0.000 A 
ENDROOT
TORSDOF 0
ENDMDL
MODEL 4
REMARK VINA RESULT:    -6.220      0.286      4.652
REMARK INTER + INTRA:          -6.220
REMARK INTER:                  -6.220
REMARK INTRA:                   0.000
REMARK UNBOUND:                 0.000
REMARK  Name = C:\Users\sofiya chavarekar\OneDrive\Assignment- Module 1\PROJECT(AI-based drug target identification for SDH-related rare disorders)\Data\Ligands\PDB\Ligand_0017.pdb
REMARK  2 active torsions:
REMARK  status: ('A' for Active; 'I' for Inactive)
REMARK    1  A    between atoms: C_1  and  C_2
REMARK    2  A    between atoms: C_9  and  C_10
REMARK                            x       y       z     vdW  Elec       q    Type
REMARK                         _______ _______ _______ _____ _____    ______ ____
ROOT
ATOM      1  C   UNL     1     -13.840   2.938  27.803  0.00  0.00    +0.000 C 
ATOM      2  C   UNL     1     -14.206   4.336  27.329  0.00  0.00    +0.000 A 
ATOM      3  C   UNL     1     -15.530   4.844  27.503  0.00  0.00    +0.000 A 
ATOM      4  C   UNL     1     -16.571   4.090  28.109  0.00  0.00    +0.000 A 
ATOM      5  C   UNL     1     -17.858   4.590  28.302  0.00  0.00    +0.000 A 
ATOM      6  C   UNL     1     -18.155   5.868  27.882  0.00  0.00    +0.000 A 
ATOM      7  C   UNL     1     -17.165   6.630  27.267  0.00  0.00    +0.000 A 
ATOM      8  C   UNL     1     -15.840   6.157  27.056  0.00  0.00    +0.000 A 
ATOM      9  C   UNL     1     -14.826   6.939  26.420  0.00  0.00    +0.000 A 
ATOM     10  C   UNL     1     -15.108   8.345  25.915  0.00  0.00    +0.000 C 
ATOM     11  C   UNL     1     -13.510   6.417  26.227  0.00  0.00    +0.000 A 
ATOM     12  C   UNL     1     -12.481   7.166  25.594  0.00  0.00    +0.000 A 
ATOM     13  C   UNL     1     -11.196   6.665  25.396  0.00  0.00    +0.000 A 
ATOM     14  C   UNL     1     -10.897   5.387  25.820  0.00  0.00    +0.000 A 
ATOM     15  C   UNL     1     -11.885   4.625  26.443  0.00  0.00    +0.000 A 
ATOM     16  C   UNL     1     -13.200   5.111  26.674  0.00  0.00    +0.000 A 
ENDROOT
TORSDOF 0
ENDMDL
MODEL 5
REMARK VINA RESULT:    -5.844      1.057      3.734
REMARK INTER + INTRA:          -5.844
REMARK INTER:                  -5.844
REMARK INTRA:                   0.000
REMARK UNBOUND:                 0.000
REMARK  Name = C:\Users\sofiya chavarekar\OneDrive\Assignment- Module 1\PROJECT(AI-based drug target identification for SDH-related rare disorders)\Data\Ligands\PDB\Ligand_0017.pdb
REMARK  2 active torsions:
REMARK  status: ('A' for Active; 'I' for Inactive)
REMARK    1  A    between atoms: C_1  and  C_2
REMARK    2  A    between atoms: C_9  and  C_10
REMARK                            x       y       z     vdW  Elec       q    Type
REMARK                         _______ _______ _______ _____ _____    ______ ____
ROOT
ATOM      1  C   UNL     1     -17.934   5.709  27.677  0.00  0.00    +0.000 C 
ATOM      2  C   UNL     1     -16.447   5.754  27.361  0.00  0.00    +0.000 A 
ATOM      3  C   UNL     1     -15.836   6.953  26.882  0.00  0.00    +0.000 A 
ATOM      4  C   UNL     1     -16.565   8.155  26.665  0.00  0.00    +0.000 A 
ATOM      5  C   UNL     1     -15.970   9.334  26.219  0.00  0.00    +0.000 A 
ATOM      6  C   UNL     1     -14.616   9.351  25.962  0.00  0.00    +0.000 A 
ATOM      7  C   UNL     1     -13.873   8.187  26.146  0.00  0.00    +0.000 A 
ATOM      8  C   UNL     1     -14.443   6.966  26.602  0.00  0.00    +0.000 A 
ATOM      9  C   UNL     1     -13.680   5.771  26.786  0.00  0.00    +0.000 A 
ATOM     10  C   UNL     1     -12.189   5.728  26.492  0.00  0.00    +0.000 C 
ATOM     11  C   UNL     1     -14.300   4.567  27.242  0.00  0.00    +0.000 A 
ATOM     12  C   UNL     1     -13.572   3.362  27.429  0.00  0.00    +0.000 A 
ATOM     13  C   UNL     1     -14.167   2.181  27.870  0.00  0.00    +0.000 A 
ATOM     14  C   UNL     1     -15.521   2.164  28.131  0.00  0.00    +0.000 A 
ATOM     15  C   UNL     1     -16.265   3.331  27.955  0.00  0.00    +0.000 A 
ATOM     16  C   UNL     1     -15.687   4.555  27.523  0.00  0.00    +0.000 A 
ENDROOT
TORSDOF 0
ENDMDL
MODEL 6
REMARK VINA RESULT:    -5.789      1.319      4.193
REMARK INTER + INTRA:          -5.789
REMARK INTER:                  -5.789
REMARK INTRA:                   0.000
REMARK UNBOUND:                 0.000
REMARK  Name = C:\Users\sofiya chavarekar\OneDrive\Assignment- Module 1\PROJECT(AI-based drug target identification for SDH-related rare disorders)\Data\Ligands\PDB\Ligand_0017.pdb
REMARK  2 active torsions:
REMARK  status: ('A' for Active; 'I' for Inactive)
REMARK    1  A    between atoms: C_1  and  C_2
REMARK    2  A    between atoms: C_9  and  C_10
REMARK                            x       y       z     vdW  Elec       q    Type
REMARK                         _______ _______ _______ _____ _____    ______ ____
ROOT
ATOM      1  C   UNL     1     -17.319   6.653  28.816  0.00  0.00    +0.000 C 
ATOM      2  C   UNL     1     -16.062   6.653  27.959  0.00  0.00    +0.000 A 
ATOM      3  C   UNL     1     -15.259   5.478  27.837  0.00  0.00    +0.000 A 
ATOM      4  C   UNL     1     -15.571   4.260  28.501  0.00  0.00    +0.000 A 
ATOM      5  C   UNL     1     -14.803   3.104  28.367  0.00  0.00    +0.000 A 
ATOM      6  C   UNL     1     -13.682   3.128  27.567  0.00  0.00    +0.000 A 
ATOM      7  C   UNL     1     -13.335   4.309  26.915  0.00  0.00    +0.000 A 
ATOM      8  C   UNL     1     -14.094   5.507  27.024  0.00  0.00    +0.000 A 
ATOM      9  C   UNL     1     -13.734   6.720  26.358  0.00  0.00    +0.000 A 
ATOM     10  C   UNL     1     -12.494   6.808  25.485  0.00  0.00    +0.000 C 
ATOM     11  C   UNL     1     -14.528   7.900  26.502  0.00  0.00    +0.000 A 
ATOM     12  C   UNL     1     -14.195   9.122  25.860  0.00  0.00    +0.000 A 
ATOM     13  C   UNL     1     -14.958  10.280  25.997  0.00  0.00    +0.000 A 
ATOM     14  C   UNL     1     -16.083  10.256  26.795  0.00  0.00    +0.000 A 
ATOM     15  C   UNL     1     -16.436   9.072  27.442  0.00  0.00    +0.000 A 
ATOM     16  C   UNL     1     -15.689   7.870  27.310  0.00  0.00    +0.000 A 
ENDROOT
TORSDOF 0
ENDMDL
MODEL 7
REMARK VINA RESULT:    -5.420      1.584      4.890
REMARK INTER + INTRA:          -5.420
REMARK INTER:                  -5.420
REMARK INTRA:                   0.000
REMARK UNBOUND:                 0.000
REMARK  Name = C:\Users\sofiya chavarekar\OneDrive\Assignment- Module 1\PROJECT(AI-based drug target identification for SDH-related rare disorders)\Data\Ligands\PDB\Ligand_0017.pdb
REMARK  2 active torsions:
REMARK  status: ('A' for Active; 'I' for Inactive)
REMARK    1  A    between atoms: C_1  and  C_2
REMARK    2  A    between atoms: C_9  and  C_10
REMARK                            x       y       z     vdW  Elec       q    Type
REMARK                         _______ _______ _______ _____ _____    ______ ____
ROOT
ATOM      1  C   UNL     1     -15.840   4.532  28.780  0.00  0.00    +0.000 C 
ATOM      2  C   UNL     1     -15.598   5.864  28.087  0.00  0.00    +0.000 A 
ATOM      3  C   UNL     1     -16.534   6.936  28.213  0.00  0.00    +0.000 A 
ATOM      4  C   UNL     1     -17.731   6.827  28.971  0.00  0.00    +0.000 A 
ATOM      5  C   UNL     1     -18.636   7.878  29.117  0.00  0.00    +0.000 A 
ATOM      6  C   UNL     1     -18.380   9.080  28.495  0.00  0.00    +0.000 A 
ATOM      7  C   UNL     1     -17.224   9.218  27.728  0.00  0.00    +0.000 A 
ATOM      8  C   UNL     1     -16.276   8.171  27.559  0.00  0.00    +0.000 A 
ATOM      9  C   UNL     1     -15.093   8.313  26.768  0.00  0.00    +0.000 A 
ATOM     10  C   UNL     1     -14.776   9.608  26.040  0.00  0.00    +0.000 C 
ATOM     11  C   UNL     1     -14.172   7.229  26.625  0.00  0.00    +0.000 A 
ATOM     12  C   UNL     1     -12.992   7.335  25.842  0.00  0.00    +0.000 A 
ATOM     13  C   UNL     1     -12.089   6.284  25.692  0.00  0.00    +0.000 A 
ATOM     14  C   UNL     1     -12.343   5.081  26.318  0.00  0.00    +0.000 A 
ATOM     15  C   UNL     1     -13.496   4.944  27.092  0.00  0.00    +0.000 A 
ATOM     16  C   UNL     1     -14.427   6.000  27.278  0.00  0.00    +0.000 A 
ENDROOT
TORSDOF 0
ENDMDL
MODEL 8
REMARK VINA RESULT:    -5.171      1.098      4.140
REMARK INTER + INTRA:          -5.171
REMARK INTER:                  -5.171
REMARK INTRA:                   0.000
REMARK UNBOUND:                 0.000
REMARK  Name = C:\Users\sofiya chavarekar\OneDrive\Assignment- Module 1\PROJECT(AI-based drug target identification for SDH-related rare disorders)\Data\Ligands\PDB\Ligand_0017.pdb
REMARK  2 active torsions:
REMARK  status: ('A' for Active; 'I' for Inactive)
REMARK    1  A    between atoms: C_1  and  C_2
REMARK    2  A    between atoms: C_9  and  C_10
REMARK                            x       y       z     vdW  Elec       q    Type
REMARK                         _______ _______ _______ _____ _____    ______ ____
ROOT
ATOM      1  C   UNL     1     -12.330   4.946  26.562  0.00  0.00    +0.000 C 
ATOM      2  C   UNL     1     -13.748   4.991  27.107  0.00  0.00    +0.000 A 
ATOM      3  C   UNL     1     -14.333   3.840  27.721  0.00  0.00    +0.000 A 
ATOM      4  C   UNL     1     -13.645   2.604  27.852  0.00  0.00    +0.000 A 
ATOM      5  C   UNL     1     -14.202   1.486  28.471  0.00  0.00    +0.000 A 
ATOM      6  C   UNL     1     -15.482   1.562  28.974  0.00  0.00    +0.000 A 
ATOM      7  C   UNL     1     -16.195   2.753  28.847  0.00  0.00    +0.000 A 
ATOM      8  C   UNL     1     -15.659   3.915  28.227  0.00  0.00    +0.000 A 
ATOM      9  C   UNL     1     -16.394   5.135  28.093  0.00  0.00    +0.000 A 
ATOM     10  C   UNL     1     -17.817   5.264  28.608  0.00  0.00    +0.000 C 
ATOM     11  C   UNL     1     -15.812   6.275  27.457  0.00  0.00    +0.000 A 
ATOM     12  C   UNL     1     -16.517   7.499  27.303  0.00  0.00    +0.000 A 
ATOM     13  C   UNL     1     -15.962   8.616  26.680  0.00  0.00    +0.000 A 
ATOM     14  C   UNL     1     -14.679   8.542  26.179  0.00  0.00    +0.000 A 
ATOM     15  C   UNL     1     -13.962   7.352  26.312  0.00  0.00    +0.000 A 
ATOM     16  C   UNL     1     -14.492   6.202  26.955  0.00  0.00    +0.000 A 
ENDROOT
TORSDOF 0
ENDMDL
MODEL 9
REMARK VINA RESULT:    -4.966      8.211      9.643
REMARK INTER + INTRA:          -4.966
REMARK INTER:                  -4.966
REMARK INTRA:                   0.000
REMARK UNBOUND:                 0.000
REMARK  Name = C:\Users\sofiya chavarekar\OneDrive\Assignment- Module 1\PROJECT(AI-based drug target identification for SDH-related rare disorders)\Data\Ligands\PDB\Ligand_0017.pdb
REMARK  2 active torsions:
REMARK  status: ('A' for Active; 'I' for Inactive)
REMARK    1  A    between atoms: C_1  and  C_2
REMARK    2  A    between atoms: C_9  and  C_10
REMARK                            x       y       z     vdW  Elec       q    Type
REMARK                         _______ _______ _______ _____ _____    ______ ____
ROOT
ATOM      1  C   UNL     1     -21.590   1.997  33.383  0.00  0.00    +0.000 C 
ATOM      2  C   UNL     1     -20.164   1.516  33.166  0.00  0.00    +0.000 A 
ATOM      3  C   UNL     1     -19.895   0.353  32.380  0.00  0.00    +0.000 A 
ATOM      4  C   UNL     1     -20.922  -0.418  31.769  0.00  0.00    +0.000 A 
ATOM      5  C   UNL     1     -20.664  -1.539  30.982  0.00  0.00    +0.000 A 
ATOM      6  C   UNL     1     -19.360  -1.940  30.786  0.00  0.00    +0.000 A 
ATOM      7  C   UNL     1     -18.328  -1.219  31.384  0.00  0.00    +0.000 A 
ATOM      8  C   UNL     1     -18.551  -0.069  32.189  0.00  0.00    +0.000 A 
ATOM      9  C   UNL     1     -17.491   0.667  32.807  0.00  0.00    +0.000 A 
ATOM     10  C   UNL     1     -16.039   0.253  32.644  0.00  0.00    +0.000 C 
ATOM     11  C   UNL     1     -17.767   1.815  33.612  0.00  0.00    +0.000 A 
ATOM     12  C   UNL     1     -16.738   2.564  34.244  0.00  0.00    +0.000 A 
ATOM     13  C   UNL     1     -16.995   3.682  35.035  0.00  0.00    +0.000 A 
ATOM     14  C   UNL     1     -18.300   4.086  35.229  0.00  0.00    +0.000 A 
ATOM     15  C   UNL     1     -19.334   3.370  34.624  0.00  0.00    +0.000 A 
ATOM     16  C   UNL     1     -19.104   2.236  33.800  0.00  0.00    +0.000 A 
ENDROOT
TORSDOF 0
ENDMDL
