MODEL 1
REMARK VINA RESULT:    -5.611      0.000      0.000
REMARK INTER + INTRA:          -7.109
REMARK INTER:                  -6.595
REMARK INTRA:                  -0.514
REMARK UNBOUND:                -0.514
REMARK  Name = C:\Users\sofiya chavarekar\OneDrive\Assignment- Module 1\PROJECT(AI-based drug target identification for SDH-related rare disorders)\Data\Ligands\PDB\Ligand_0013.pdb
REMARK  3 active torsions:
REMARK  status: ('A' for Active; 'I' for Inactive)
REMARK    1  A    between atoms: C_4  and  C_5
REMARK    2  A    between atoms: C_5  and  C_6
REMARK    3  A    between atoms: C_6  and  C_7
REMARK                            x       y       z     vdW  Elec       q    Type
REMARK                         _______ _______ _______ _____ _____    ______ ____
ROOT
ATOM      1  C   UNL     1     -14.154   3.549  28.250  0.00  0.00    +0.000 C 
ENDROOT
BRANCH   1   5
ATOM      2  C   UNL     1     -14.051  -0.771  28.132  0.00  0.00    +0.000 A 
ATOM      3  C   UNL     1     -15.138  -0.083  27.596  0.00  0.00    +0.000 A 
ATOM      4  C   UNL     1     -15.168   1.314  27.623  0.00  0.00    +0.000 A 
ATOM      5  C   UNL     1     -14.105   2.039  28.179  0.00  0.00    +0.000 A 
ATOM      6  C   UNL     1     -13.006   1.338  28.697  0.00  0.00    +0.000 A 
ATOM      7  C   UNL     1     -12.982  -0.061  28.675  0.00  0.00    +0.000 A 
ENDBRANCH   1   5
BRANCH   1   8
ATOM      8  C   UNL     1     -14.575   4.179  26.915  0.00  0.00    +0.000 C 
BRANCH   8   9
ATOM      9  C   UNL     1     -13.509   5.104  26.371  0.00  0.00    +0.000 A 
ATOM     10  C   UNL     1     -13.860   6.257  25.659  0.00  0.00    +0.000 A 
ATOM     11  C   UNL     1     -12.873   7.076  25.100  0.00  0.00    +0.000 A 
ATOM     12  C   UNL     1     -11.527   6.747  25.250  0.00  0.00    +0.000 A 
ATOM     13  C   UNL     1     -11.167   5.613  25.971  0.00  0.00    +0.000 A 
ATOM     14  C   UNL     1     -12.149   4.797  26.533  0.00  0.00    +0.000 A 
ENDBRANCH   8   9
ENDBRANCH   1   8
TORSDOF 3
ENDMDL
MODEL 2
REMARK VINA RESULT:    -5.607      0.211      5.827
REMARK INTER + INTRA:          -7.105
REMARK INTER:                  -6.578
REMARK INTRA:                  -0.527
REMARK UNBOUND:                -0.514
REMARK  Name = C:\Users\sofiya chavarekar\OneDrive\Assignment- Module 1\PROJECT(AI-based drug target identification for SDH-related rare disorders)\Data\Ligands\PDB\Ligand_0013.pdb
REMARK  3 active torsions:
REMARK  status: ('A' for Active; 'I' for Inactive)
REMARK    1  A    between atoms: C_4  and  C_5
REMARK    2  A    between atoms: C_5  and  C_6
REMARK    3  A    between atoms: C_6  and  C_7
REMARK                            x       y       z     vdW  Elec       q    Type
REMARK                         _______ _______ _______ _____ _____    ______ ____
ROOT
ATOM      1  C   UNL     1     -14.558   4.062  26.954  0.00  0.00    +0.000 C 
ENDROOT
BRANCH   1   5
ATOM      2  C   UNL     1     -11.548   6.706  25.334  0.00  0.00    +0.000 A 
ATOM      3  C   UNL     1     -12.900   7.004  25.172  0.00  0.00    +0.000 A 
ATOM      4  C   UNL     1     -13.874   6.156  25.705  0.00  0.00    +0.000 A 
ATOM      5  C   UNL     1     -13.506   5.005  26.414  0.00  0.00    +0.000 A 
ATOM      6  C   UNL     1     -12.143   4.725  26.590  0.00  0.00    +0.000 A 
ATOM      7  C   UNL     1     -11.170   5.571  26.049  0.00  0.00    +0.000 A 
ENDBRANCH   1   5
BRANCH   1   8
ATOM      8  C   UNL     1     -14.166   3.472  28.316  0.00  0.00    +0.000 C 
BRANCH   8   9
ATOM      9  C   UNL     1     -13.996   1.971  28.250  0.00  0.00    +0.000 A 
ATOM     10  C   UNL     1     -15.054   1.150  27.843  0.00  0.00    +0.000 A 
ATOM     11  C   UNL     1     -14.917  -0.242  27.846  0.00  0.00    +0.000 A 
ATOM     12  C   UNL     1     -13.718  -0.823  28.254  0.00  0.00    +0.000 A 
ATOM     13  C   UNL     1     -12.653  -0.016  28.642  0.00  0.00    +0.000 A 
ATOM     14  C   UNL     1     -12.786   1.373  28.637  0.00  0.00    +0.000 A 
ENDBRANCH   8   9
ENDBRANCH   1   8
TORSDOF 3
ENDMDL
MODEL 3
REMARK VINA RESULT:    -5.545      0.601      6.009
REMARK INTER + INTRA:          -7.032
REMARK INTER:                  -6.505
REMARK INTRA:                  -0.527
REMARK UNBOUND:                -0.514
REMARK  Name = C:\Users\sofiya chavarekar\OneDrive\Assignment- Module 1\PROJECT(AI-based drug target identification for SDH-related rare disorders)\Data\Ligands\PDB\Ligand_0013.pdb
REMARK  3 active torsions:
REMARK  status: ('A' for Active; 'I' for Inactive)
REMARK    1  A    between atoms: C_4  and  C_5
REMARK    2  A    between atoms: C_5  and  C_6
REMARK    3  A    between atoms: C_6  and  C_7
REMARK                            x       y       z     vdW  Elec       q    Type
REMARK                         _______ _______ _______ _____ _____    ______ ____
ROOT
ATOM      1  C   UNL     1     -14.020   4.594  27.662  0.00  0.00    +0.000 C 
ENDROOT
BRANCH   1   5
ATOM      2  C   UNL     1     -11.390   6.692  24.949  0.00  0.00    +0.000 A 
ATOM      3  C   UNL     1     -10.912   5.614  25.692  0.00  0.00    +0.000 A 
ATOM      4  C   UNL     1     -11.764   4.928  26.561  0.00  0.00    +0.000 A 
ATOM      5  C   UNL     1     -13.107   5.307  26.690  0.00  0.00    +0.000 A 
ATOM      6  C   UNL     1     -13.584   6.379  25.921  0.00  0.00    +0.000 A 
ATOM      7  C   UNL     1     -12.727   7.069  25.058  0.00  0.00    +0.000 A 
ENDBRANCH   1   5
BRANCH   1   8
ATOM      8  C   UNL     1     -14.846   3.493  26.983  0.00  0.00    +0.000 C 
BRANCH   8   9
ATOM      9  C   UNL     1     -14.554   2.130  27.569  0.00  0.00    +0.000 A 
ATOM     10  C   UNL     1     -13.393   1.909  28.319  0.00  0.00    +0.000 A 
ATOM     11  C   UNL     1     -13.092   0.632  28.804  0.00  0.00    +0.000 A 
ATOM     12  C   UNL     1     -13.952  -0.434  28.544  0.00  0.00    +0.000 A 
ATOM     13  C   UNL     1     -15.118  -0.221  27.815  0.00  0.00    +0.000 A 
ATOM     14  C   UNL     1     -15.423   1.052  27.333  0.00  0.00    +0.000 A 
ENDBRANCH   8   9
ENDBRANCH   1   8
TORSDOF 3
ENDMDL
MODEL 4
REMARK VINA RESULT:    -5.307      1.337      5.762
REMARK INTER + INTRA:          -6.752
REMARK INTER:                  -6.185
REMARK INTRA:                  -0.568
REMARK UNBOUND:                -0.514
REMARK  Name = C:\Users\sofiya chavarekar\OneDrive\Assignment- Module 1\PROJECT(AI-based drug target identification for SDH-related rare disorders)\Data\Ligands\PDB\Ligand_0013.pdb
REMARK  3 active torsions:
REMARK  status: ('A' for Active; 'I' for Inactive)
REMARK    1  A    between atoms: C_4  and  C_5
REMARK    2  A    between atoms: C_5  and  C_6
REMARK    3  A    between atoms: C_6  and  C_7
REMARK                            x       y       z     vdW  Elec       q    Type
REMARK                         _______ _______ _______ _____ _____    ______ ____
ROOT
ATOM      1  C   UNL     1     -14.438   5.459  27.118  0.00  0.00    +0.000 C 
ENDROOT
BRANCH   1   5
ATOM      2  C   UNL     1     -10.995   6.640  24.787  0.00  0.00    +0.000 A 
ATOM      3  C   UNL     1     -12.195   7.338  24.664  0.00  0.00    +0.000 A 
ATOM      4  C   UNL     1     -13.305   6.965  25.426  0.00  0.00    +0.000 A 
ATOM      5  C   UNL     1     -13.225   5.894  26.325  0.00  0.00    +0.000 A 
ATOM      6  C   UNL     1     -12.007   5.211  26.457  0.00  0.00    +0.000 A 
ATOM      7  C   UNL     1     -10.899   5.581  25.688  0.00  0.00    +0.000 A 
ENDBRANCH   1   5
BRANCH   1   8
ATOM      8  C   UNL     1     -14.215   4.118  27.832  0.00  0.00    +0.000 C 
BRANCH   8   9
ATOM      9  C   UNL     1     -15.044   3.012  27.219  0.00  0.00    +0.000 A 
ATOM     10  C   UNL     1     -15.989   3.294  26.226  0.00  0.00    +0.000 A 
ATOM     11  C   UNL     1     -16.801   2.280  25.708  0.00  0.00    +0.000 A 
ATOM     12  C   UNL     1     -16.674   0.975  26.180  0.00  0.00    +0.000 A 
ATOM     13  C   UNL     1     -15.724   0.680  27.153  0.00  0.00    +0.000 A 
ATOM     14  C   UNL     1     -14.910   1.689  27.669  0.00  0.00    +0.000 A 
ENDBRANCH   8   9
ENDBRANCH   1   8
TORSDOF 3
ENDMDL
MODEL 5
REMARK VINA RESULT:    -5.300      3.716      7.330
REMARK INTER + INTRA:          -6.744
REMARK INTER:                  -6.209
REMARK INTRA:                  -0.535
REMARK UNBOUND:                -0.514
REMARK  Name = C:\Users\sofiya chavarekar\OneDrive\Assignment- Module 1\PROJECT(AI-based drug target identification for SDH-related rare disorders)\Data\Ligands\PDB\Ligand_0013.pdb
REMARK  3 active torsions:
REMARK  status: ('A' for Active; 'I' for Inactive)
REMARK    1  A    between atoms: C_4  and  C_5
REMARK    2  A    between atoms: C_5  and  C_6
REMARK    3  A    between atoms: C_6  and  C_7
REMARK                            x       y       z     vdW  Elec       q    Type
REMARK                         _______ _______ _______ _____ _____    ______ ____
ROOT
ATOM      1  C   UNL     1     -15.407   8.082  27.226  0.00  0.00    +0.000 C 
ENDROOT
BRANCH   1   5
ATOM      2  C   UNL     1     -16.087  12.286  26.488  0.00  0.00    +0.000 A 
ATOM      3  C   UNL     1     -15.221  11.564  25.669  0.00  0.00    +0.000 A 
ATOM      4  C   UNL     1     -15.009  10.202  25.899  0.00  0.00    +0.000 A 
ATOM      5  C   UNL     1     -15.668   9.545  26.947  0.00  0.00    +0.000 A 
ATOM      6  C   UNL     1     -16.554  10.276  27.752  0.00  0.00    +0.000 A 
ATOM      7  C   UNL     1     -16.759  11.641  27.525  0.00  0.00    +0.000 A 
ENDBRANCH   1   5
BRANCH   1   8
ATOM      8  C   UNL     1     -15.081   7.296  25.948  0.00  0.00    +0.000 C 
BRANCH   8   9
ATOM      9  C   UNL     1     -13.655   6.795  25.945  0.00  0.00    +0.000 A 
ATOM     10  C   UNL     1     -12.747   7.231  24.973  0.00  0.00    +0.000 A 
ATOM     11  C   UNL     1     -11.447   6.716  24.931  0.00  0.00    +0.000 A 
ATOM     12  C   UNL     1     -11.045   5.762  25.864  0.00  0.00    +0.000 A 
ATOM     13  C   UNL     1     -11.934   5.336  26.846  0.00  0.00    +0.000 A 
ATOM     14  C   UNL     1     -13.229   5.851  26.892  0.00  0.00    +0.000 A 
ENDBRANCH   8   9
ENDBRANCH   1   8
TORSDOF 3
ENDMDL
MODEL 6
REMARK VINA RESULT:    -5.270      1.329      2.082
REMARK INTER + INTRA:          -6.708
REMARK INTER:                  -6.169
REMARK INTRA:                  -0.540
REMARK UNBOUND:                -0.514
REMARK  Name = C:\Users\sofiya chavarekar\OneDrive\Assignment- Module 1\PROJECT(AI-based drug target identification for SDH-related rare disorders)\Data\Ligands\PDB\Ligand_0013.pdb
REMARK  3 active torsions:
REMARK  status: ('A' for Active; 'I' for Inactive)
REMARK    1  A    between atoms: C_4  and  C_5
REMARK    2  A    between atoms: C_5  and  C_6
REMARK    3  A    between atoms: C_6  and  C_7
REMARK                            x       y       z     vdW  Elec       q    Type
REMARK                         _______ _______ _______ _____ _____    ______ ____
ROOT
ATOM      1  C   UNL     1     -13.794   3.226  27.633  0.00  0.00    +0.000 C 
ENDROOT
BRANCH   1   5
ATOM      2  C   UNL     1     -17.225   1.034  26.183  0.00  0.00    +0.000 A 
ATOM      3  C   UNL     1     -16.971   2.322  25.717  0.00  0.00    +0.000 A 
ATOM      4  C   UNL     1     -15.856   3.028  26.176  0.00  0.00    +0.000 A 
ATOM      5  C   UNL     1     -14.977   2.448  27.101  0.00  0.00    +0.000 A 
ATOM      6  C   UNL     1     -15.229   1.143  27.547  0.00  0.00    +0.000 A 
ATOM      7  C   UNL     1     -16.350   0.441  27.092  0.00  0.00    +0.000 A 
ENDBRANCH   1   5
BRANCH   1   8
ATOM      8  C   UNL     1     -14.054   4.739  27.651  0.00  0.00    +0.000 C 
BRANCH   8   9
ATOM      9  C   UNL     1     -13.135   5.478  26.705  0.00  0.00    +0.000 A 
ATOM     10  C   UNL     1     -13.624   6.511  25.897  0.00  0.00    +0.000 A 
ATOM     11  C   UNL     1     -12.788   7.149  24.975  0.00  0.00    +0.000 A 
ATOM     12  C   UNL     1     -11.456   6.758  24.854  0.00  0.00    +0.000 A 
ATOM     13  C   UNL     1     -10.955   5.744  25.666  0.00  0.00    +0.000 A 
ATOM     14  C   UNL     1     -11.786   5.109  26.589  0.00  0.00    +0.000 A 
ENDBRANCH   8   9
ENDBRANCH   1   8
TORSDOF 3
ENDMDL
MODEL 7
REMARK VINA RESULT:    -5.077      1.574      2.248
REMARK INTER + INTRA:          -6.482
REMARK INTER:                  -5.958
REMARK INTRA:                  -0.524
REMARK UNBOUND:                -0.514
REMARK  Name = C:\Users\sofiya chavarekar\OneDrive\Assignment- Module 1\PROJECT(AI-based drug target identification for SDH-related rare disorders)\Data\Ligands\PDB\Ligand_0013.pdb
REMARK  3 active torsions:
REMARK  status: ('A' for Active; 'I' for Inactive)
REMARK    1  A    between atoms: C_4  and  C_5
REMARK    2  A    between atoms: C_5  and  C_6
REMARK    3  A    between atoms: C_6  and  C_7
REMARK                            x       y       z     vdW  Elec       q    Type
REMARK                         _______ _______ _______ _____ _____    ______ ____
ROOT
ATOM      1  C   UNL     1     -15.458   3.409  26.116  0.00  0.00    +0.000 C 
ENDROOT
BRANCH   1   5
ATOM      2  C   UNL     1     -16.168   0.740  29.440  0.00  0.00    +0.000 A 
ATOM      3  C   UNL     1     -15.952   0.224  28.164  0.00  0.00    +0.000 A 
ATOM      4  C   UNL     1     -15.711   1.085  27.090  0.00  0.00    +0.000 A 
ATOM      5  C   UNL     1     -15.675   2.472  27.284  0.00  0.00    +0.000 A 
ATOM      6  C   UNL     1     -15.872   2.980  28.576  0.00  0.00    +0.000 A 
ATOM      7  C   UNL     1     -16.120   2.117  29.648  0.00  0.00    +0.000 A 
ENDBRANCH   1   5
BRANCH   1   8
ATOM      8  C   UNL     1     -15.243   4.860  26.568  0.00  0.00    +0.000 C 
BRANCH   8   9
ATOM      9  C   UNL     1     -13.882   5.379  26.162  0.00  0.00    +0.000 A 
ATOM     10  C   UNL     1     -12.715   4.740  26.598  0.00  0.00    +0.000 A 
ATOM     11  C   UNL     1     -11.457   5.259  26.276  0.00  0.00    +0.000 A 
ATOM     12  C   UNL     1     -11.357   6.421  25.514  0.00  0.00    +0.000 A 
ATOM     13  C   UNL     1     -12.510   7.053  25.059  0.00  0.00    +0.000 A 
ATOM     14  C   UNL     1     -13.766   6.535  25.375  0.00  0.00    +0.000 A 
ENDBRANCH   8   9
ENDBRANCH   1   8
TORSDOF 3
ENDMDL
MODEL 8
REMARK VINA RESULT:    -5.021      1.043      2.293
REMARK INTER + INTRA:          -6.415
REMARK INTER:                  -5.921
REMARK INTRA:                  -0.495
REMARK UNBOUND:                -0.514
REMARK  Name = C:\Users\sofiya chavarekar\OneDrive\Assignment- Module 1\PROJECT(AI-based drug target identification for SDH-related rare disorders)\Data\Ligands\PDB\Ligand_0013.pdb
REMARK  3 active torsions:
REMARK  status: ('A' for Active; 'I' for Inactive)
REMARK    1  A    between atoms: C_4  and  C_5
REMARK    2  A    between atoms: C_5  and  C_6
REMARK    3  A    between atoms: C_6  and  C_7
REMARK                            x       y       z     vdW  Elec       q    Type
REMARK                         _______ _______ _______ _____ _____    ______ ____
ROOT
ATOM      1  C   UNL     1     -14.754   3.077  27.903  0.00  0.00    +0.000 C 
ENDROOT
BRANCH   1   5
ATOM      2  C   UNL     1     -16.046  -0.857  26.665  0.00  0.00    +0.000 A 
ATOM      3  C   UNL     1     -14.998  -0.719  27.572  0.00  0.00    +0.000 A 
ATOM      4  C   UNL     1     -14.586   0.552  27.983  0.00  0.00    +0.000 A 
ATOM      5  C   UNL     1     -15.226   1.699  27.495  0.00  0.00    +0.000 A 
ATOM      6  C   UNL     1     -16.294   1.550  26.599  0.00  0.00    +0.000 A 
ATOM      7  C   UNL     1     -16.699   0.277  26.184  0.00  0.00    +0.000 A 
ENDBRANCH   1   5
BRANCH   1   8
ATOM      8  C   UNL     1     -13.306   3.347  27.470  0.00  0.00    +0.000 C 
BRANCH   8   9
ATOM      9  C   UNL     1     -13.191   4.617  26.656  0.00  0.00    +0.000 A 
ATOM     10  C   UNL     1     -11.943   5.208  26.428  0.00  0.00    +0.000 A 
ATOM     11  C   UNL     1     -11.845   6.417  25.731  0.00  0.00    +0.000 A 
ATOM     12  C   UNL     1     -12.996   7.043  25.257  0.00  0.00    +0.000 A 
ATOM     13  C   UNL     1     -14.240   6.454  25.462  0.00  0.00    +0.000 A 
ATOM     14  C   UNL     1     -14.340   5.247  26.153  0.00  0.00    +0.000 A 
ENDBRANCH   8   9
ENDBRANCH   1   8
TORSDOF 3
ENDMDL
MODEL 9
REMARK VINA RESULT:    -4.779      1.975      2.841
REMARK INTER + INTRA:          -6.132
REMARK INTER:                  -5.631
REMARK INTRA:                  -0.500
REMARK UNBOUND:                -0.514
REMARK  Name = C:\Users\sofiya chavarekar\OneDrive\Assignment- Module 1\PROJECT(AI-based drug target identification for SDH-related rare disorders)\Data\Ligands\PDB\Ligand_0013.pdb
REMARK  3 active torsions:
REMARK  status: ('A' for Active; 'I' for Inactive)
REMARK    1  A    between atoms: C_4  and  C_5
REMARK    2  A    between atoms: C_5  and  C_6
REMARK    3  A    between atoms: C_6  and  C_7
REMARK                            x       y       z     vdW  Elec       q    Type
REMARK                         _______ _______ _______ _____ _____    ______ ____
ROOT
ATOM      1  C   UNL     1     -15.182   3.673  27.141  0.00  0.00    +0.000 C 
ENDROOT
BRANCH   1   5
ATOM      2  C   UNL     1     -16.941   2.946  31.022  0.00  0.00    +0.000 A 
ATOM      3  C   UNL     1     -16.529   1.876  30.230  0.00  0.00    +0.000 A 
ATOM      4  C   UNL     1     -15.949   2.109  28.980  0.00  0.00    +0.000 A 
ATOM      5  C   UNL     1     -15.768   3.418  28.512  0.00  0.00    +0.000 A 
ATOM      6  C   UNL     1     -16.166   4.489  29.326  0.00  0.00    +0.000 A 
ATOM      7  C   UNL     1     -16.753   4.252  30.573  0.00  0.00    +0.000 A 
ENDBRANCH   1   5
BRANCH   1   8
ATOM      8  C   UNL     1     -15.190   5.164  26.774  0.00  0.00    +0.000 C 
BRANCH   8   9
ATOM      9  C   UNL     1     -13.831   5.634  26.308  0.00  0.00    +0.000 A 
ATOM     10  C   UNL     1     -13.710   6.752  25.475  0.00  0.00    +0.000 A 
ATOM     11  C   UNL     1     -12.458   7.147  24.991  0.00  0.00    +0.000 A 
ATOM     12  C   UNL     1     -11.317   6.426  25.339  0.00  0.00    +0.000 A 
ATOM     13  C   UNL     1     -11.424   5.324  26.183  0.00  0.00    +0.000 A 
ATOM     14  C   UNL     1     -12.671   4.931  26.669  0.00  0.00    +0.000 A 
ENDBRANCH   8   9
ENDBRANCH   1   8
TORSDOF 3
ENDMDL
