MODEL 1
REMARK VINA RESULT:    -4.654      0.000      0.000
REMARK INTER + INTRA:          -4.926
REMARK INTER:                  -4.926
REMARK INTRA:                   0.000
REMARK UNBOUND:                 0.000
REMARK  Name = C:\Users\sofiya chavarekar\OneDrive\Assignment- Module 1\PROJECT(AI-based drug target identification for SDH-related rare disorders)\Data\Ligands\PDB\Ligand_0069.pdb
REMARK  2 active torsions:
REMARK  status: ('A' for Active; 'I' for Inactive)
REMARK    1  A    between atoms: O_1  and  C_2
REMARK    2  A    between atoms: C_7  and  O_8
REMARK                            x       y       z     vdW  Elec       q    Type
REMARK                         _______ _______ _______ _____ _____    ______ ____
ROOT
ATOM      1  C   UNL     1      -9.599   4.880  24.563  0.00  0.00    +0.000 A 
ATOM      2  C   UNL     1     -10.092   4.540  25.818  0.00  0.00    +0.000 A 
ATOM      3  C   UNL     1     -11.040   5.369  26.425  0.00  0.00    +0.000 A 
ATOM      4  C   UNL     1     -11.484   6.527  25.777  0.00  0.00    +0.000 A 
ATOM      5  C   UNL     1     -10.985   6.862  24.517  0.00  0.00    +0.000 A 
ATOM      6  C   UNL     1     -10.045   6.033  23.921  0.00  0.00    +0.000 A 
ENDROOT
BRANCH   1   7
ATOM      7  O   UNL     1      -8.671   4.111  23.918  0.00  0.00    +0.000 OA
ATOM      8  H   UNL     1      -8.953   3.182  23.986  0.00  0.00    +0.000 HD
ENDBRANCH   1   7
BRANCH   6   9
ATOM      9  O   UNL     1      -9.558   6.358  22.686  0.00  0.00    +0.000 OA
ATOM     10  H   UNL     1     -10.237   6.030  22.065  0.00  0.00    +0.000 HD
ENDBRANCH   6   9
TORSDOF 2
ENDMDL
MODEL 2
REMARK VINA RESULT:    -4.643      0.069      2.188
REMARK INTER + INTRA:          -4.914
REMARK INTER:                  -4.914
REMARK INTRA:                   0.000
REMARK UNBOUND:                 0.000
REMARK  Name = C:\Users\sofiya chavarekar\OneDrive\Assignment- Module 1\PROJECT(AI-based drug target identification for SDH-related rare disorders)\Data\Ligands\PDB\Ligand_0069.pdb
REMARK  2 active torsions:
REMARK  status: ('A' for Active; 'I' for Inactive)
REMARK    1  A    between atoms: O_1  and  C_2
REMARK    2  A    between atoms: C_7  and  O_8
REMARK                            x       y       z     vdW  Elec       q    Type
REMARK                         _______ _______ _______ _____ _____    ______ ____
ROOT
ATOM      1  C   UNL     1     -10.058   6.047  23.920  0.00  0.00    +0.000 A 
ATOM      2  C   UNL     1     -11.019   6.827  24.552  0.00  0.00    +0.000 A 
ATOM      3  C   UNL     1     -11.507   6.429  25.800  0.00  0.00    +0.000 A 
ATOM      4  C   UNL     1     -11.033   5.260  26.403  0.00  0.00    +0.000 A 
ATOM      5  C   UNL     1     -10.067   4.481  25.764  0.00  0.00    +0.000 A 
ATOM      6  C   UNL     1      -9.587   4.884  24.525  0.00  0.00    +0.000 A 
ENDROOT
BRANCH   1   7
ATOM      7  O   UNL     1      -9.542   6.383  22.699  0.00  0.00    +0.000 OA
ATOM      8  H   UNL     1      -9.138   7.264  22.777  0.00  0.00    +0.000 HD
ENDBRANCH   1   7
BRANCH   6   9
ATOM      9  O   UNL     1      -8.638   4.125  23.900  0.00  0.00    +0.000 OA
ATOM     10  H   UNL     1      -8.595   3.306  24.431  0.00  0.00    +0.000 HD
ENDBRANCH   6   9
TORSDOF 2
ENDMDL
MODEL 3
REMARK VINA RESULT:    -4.448      8.083      9.095
REMARK INTER + INTRA:          -4.708
REMARK INTER:                  -4.708
REMARK INTRA:                   0.000
REMARK UNBOUND:                 0.000
REMARK  Name = C:\Users\sofiya chavarekar\OneDrive\Assignment- Module 1\PROJECT(AI-based drug target identification for SDH-related rare disorders)\Data\Ligands\PDB\Ligand_0069.pdb
REMARK  2 active torsions:
REMARK  status: ('A' for Active; 'I' for Inactive)
REMARK    1  A    between atoms: O_1  and  C_2
REMARK    2  A    between atoms: C_7  and  O_8
REMARK                            x       y       z     vdW  Elec       q    Type
REMARK                         _______ _______ _______ _____ _____    ______ ____
ROOT
ATOM      1  C   UNL     1     -12.165  -1.906  30.310  0.00  0.00    +0.000 A 
ATOM      2  C   UNL     1     -11.055  -2.355  29.604  0.00  0.00    +0.000 A 
ATOM      3  C   UNL     1     -10.709  -1.724  28.405  0.00  0.00    +0.000 A 
ATOM      4  C   UNL     1     -11.473  -0.655  27.924  0.00  0.00    +0.000 A 
ATOM      5  C   UNL     1     -12.586  -0.209  28.639  0.00  0.00    +0.000 A 
ATOM      6  C   UNL     1     -12.922  -0.840  29.828  0.00  0.00    +0.000 A 
ENDROOT
BRANCH   1   7
ATOM      7  O   UNL     1     -12.554  -2.482  31.487  0.00  0.00    +0.000 OA
ATOM      8  H   UNL     1     -13.366  -2.989  31.318  0.00  0.00    +0.000 HD
ENDBRANCH   1   7
BRANCH   6   9
ATOM      9  O   UNL     1     -14.009  -0.402  30.531  0.00  0.00    +0.000 OA
ATOM     10  H   UNL     1     -13.901  -0.802  31.416  0.00  0.00    +0.000 HD
ENDBRANCH   6   9
TORSDOF 2
ENDMDL
MODEL 4
REMARK VINA RESULT:    -4.365      1.784      2.557
REMARK INTER + INTRA:          -4.620
REMARK INTER:                  -4.620
REMARK INTRA:                   0.000
REMARK UNBOUND:                 0.000
REMARK  Name = C:\Users\sofiya chavarekar\OneDrive\Assignment- Module 1\PROJECT(AI-based drug target identification for SDH-related rare disorders)\Data\Ligands\PDB\Ligand_0069.pdb
REMARK  2 active torsions:
REMARK  status: ('A' for Active; 'I' for Inactive)
REMARK    1  A    between atoms: O_1  and  C_2
REMARK    2  A    between atoms: C_7  and  O_8
REMARK                            x       y       z     vdW  Elec       q    Type
REMARK                         _______ _______ _______ _____ _____    ______ ____
ROOT
ATOM      1  C   UNL     1     -10.946   6.656  24.506  0.00  0.00    +0.000 A 
ATOM      2  C   UNL     1     -10.249   5.652  25.167  0.00  0.00    +0.000 A 
ATOM      3  C   UNL     1     -10.887   4.935  26.182  0.00  0.00    +0.000 A 
ATOM      4  C   UNL     1     -12.211   5.226  26.528  0.00  0.00    +0.000 A 
ATOM      5  C   UNL     1     -12.906   6.235  25.859  0.00  0.00    +0.000 A 
ATOM      6  C   UNL     1     -12.265   6.942  24.851  0.00  0.00    +0.000 A 
ENDROOT
BRANCH   1   7
ATOM      7  O   UNL     1     -10.377   7.393  23.504  0.00  0.00    +0.000 OA
ATOM      8  H   UNL     1     -10.423   6.871  22.685  0.00  0.00    +0.000 HD
ENDBRANCH   1   7
BRANCH   6   9
ATOM      9  O   UNL     1     -12.945   7.927  24.193  0.00  0.00    +0.000 OA
ATOM     10  H   UNL     1     -12.750   7.766  23.248  0.00  0.00    +0.000 HD
ENDBRANCH   6   9
TORSDOF 2
ENDMDL
MODEL 5
REMARK VINA RESULT:    -4.330      1.818      2.906
REMARK INTER + INTRA:          -4.583
REMARK INTER:                  -4.583
REMARK INTRA:                   0.000
REMARK UNBOUND:                 0.000
REMARK  Name = C:\Users\sofiya chavarekar\OneDrive\Assignment- Module 1\PROJECT(AI-based drug target identification for SDH-related rare disorders)\Data\Ligands\PDB\Ligand_0069.pdb
REMARK  2 active torsions:
REMARK  status: ('A' for Active; 'I' for Inactive)
REMARK    1  A    between atoms: O_1  and  C_2
REMARK    2  A    between atoms: C_7  and  O_8
REMARK                            x       y       z     vdW  Elec       q    Type
REMARK                         _______ _______ _______ _____ _____    ______ ____
ROOT
ATOM      1  C   UNL     1     -12.344   6.916  24.878  0.00  0.00    +0.000 A 
ATOM      2  C   UNL     1     -13.018   6.192  25.854  0.00  0.00    +0.000 A 
ATOM      3  C   UNL     1     -12.342   5.176  26.537  0.00  0.00    +0.000 A 
ATOM      4  C   UNL     1     -11.005   4.893  26.239  0.00  0.00    +0.000 A 
ATOM      5  C   UNL     1     -10.334   5.625  25.258  0.00  0.00    +0.000 A 
ATOM      6  C   UNL     1     -11.011   6.632  24.585  0.00  0.00    +0.000 A 
ENDROOT
BRANCH   1   7
ATOM      7  O   UNL     1     -12.950   7.920  24.175  0.00  0.00    +0.000 OA
ATOM      8  H   UNL     1     -13.209   7.565  23.308  0.00  0.00    +0.000 HD
ENDBRANCH   1   7
BRANCH   6   9
ATOM      9  O   UNL     1     -10.355   7.352  23.627  0.00  0.00    +0.000 OA
ATOM     10  H   UNL     1     -10.904   8.151  23.507  0.00  0.00    +0.000 HD
ENDBRANCH   6   9
TORSDOF 2
ENDMDL
MODEL 6
REMARK VINA RESULT:    -4.145      3.013      4.009
REMARK INTER + INTRA:          -4.387
REMARK INTER:                  -4.387
REMARK INTRA:                   0.000
REMARK UNBOUND:                 0.000
REMARK  Name = C:\Users\sofiya chavarekar\OneDrive\Assignment- Module 1\PROJECT(AI-based drug target identification for SDH-related rare disorders)\Data\Ligands\PDB\Ligand_0069.pdb
REMARK  2 active torsions:
REMARK  status: ('A' for Active; 'I' for Inactive)
REMARK    1  A    between atoms: O_1  and  C_2
REMARK    2  A    between atoms: C_7  and  O_8
REMARK                            x       y       z     vdW  Elec       q    Type
REMARK                         _______ _______ _______ _____ _____    ______ ____
ROOT
ATOM      1  C   UNL     1     -13.860   7.062  25.828  0.00  0.00    +0.000 A 
ATOM      2  C   UNL     1     -13.900   6.237  26.946  0.00  0.00    +0.000 A 
ATOM      3  C   UNL     1     -12.791   5.440  27.245  0.00  0.00    +0.000 A 
ATOM      4  C   UNL     1     -11.657   5.473  26.426  0.00  0.00    +0.000 A 
ATOM      5  C   UNL     1     -11.624   6.304  25.305  0.00  0.00    +0.000 A 
ATOM      6  C   UNL     1     -12.728   7.093  25.016  0.00  0.00    +0.000 A 
ENDROOT
BRANCH   1   7
ATOM      7  O   UNL     1     -14.912   7.864  25.483  0.00  0.00    +0.000 OA
ATOM      8  H   UNL     1     -14.594   8.783  25.465  0.00  0.00    +0.000 HD
ENDBRANCH   1   7
BRANCH   6   9
ATOM      9  O   UNL     1     -12.695   7.910  23.922  0.00  0.00    +0.000 OA
ATOM     10  H   UNL     1     -12.991   8.778  24.259  0.00  0.00    +0.000 HD
ENDBRANCH   6   9
TORSDOF 2
ENDMDL
MODEL 7
REMARK VINA RESULT:    -4.141      7.908      8.995
REMARK INTER + INTRA:          -4.383
REMARK INTER:                  -4.383
REMARK INTRA:                   0.000
REMARK UNBOUND:                 0.000
REMARK  Name = C:\Users\sofiya chavarekar\OneDrive\Assignment- Module 1\PROJECT(AI-based drug target identification for SDH-related rare disorders)\Data\Ligands\PDB\Ligand_0069.pdb
REMARK  2 active torsions:
REMARK  status: ('A' for Active; 'I' for Inactive)
REMARK    1  A    between atoms: O_1  and  C_2
REMARK    2  A    between atoms: C_7  and  O_8
REMARK                            x       y       z     vdW  Elec       q    Type
REMARK                         _______ _______ _______ _____ _____    ______ ____
ROOT
ATOM      1  C   UNL     1     -13.083  -1.494  30.474  0.00  0.00    +0.000 A 
ATOM      2  C   UNL     1     -14.378  -1.033  30.681  0.00  0.00    +0.000 A 
ATOM      3  C   UNL     1     -14.957  -0.184  29.733  0.00  0.00    +0.000 A 
ATOM      4  C   UNL     1     -14.241   0.196  28.594  0.00  0.00    +0.000 A 
ATOM      5  C   UNL     1     -12.941  -0.271  28.393  0.00  0.00    +0.000 A 
ATOM      6  C   UNL     1     -12.373  -1.114  29.337  0.00  0.00    +0.000 A 
ENDROOT
BRANCH   1   7
ATOM      7  O   UNL     1     -12.461  -2.326  31.364  0.00  0.00    +0.000 OA
ATOM      8  H   UNL     1     -12.444  -3.218  30.978  0.00  0.00    +0.000 HD
ENDBRANCH   1   7
BRANCH   6   9
ATOM      9  O   UNL     1     -11.102  -1.576  29.140  0.00  0.00    +0.000 OA
ATOM     10  H   UNL     1     -11.212  -2.334  28.533  0.00  0.00    +0.000 HD
ENDBRANCH   6   9
TORSDOF 2
ENDMDL
MODEL 8
REMARK VINA RESULT:    -4.138      3.028      4.029
REMARK INTER + INTRA:          -4.380
REMARK INTER:                  -4.380
REMARK INTRA:                   0.000
REMARK UNBOUND:                 0.000
REMARK  Name = C:\Users\sofiya chavarekar\OneDrive\Assignment- Module 1\PROJECT(AI-based drug target identification for SDH-related rare disorders)\Data\Ligands\PDB\Ligand_0069.pdb
REMARK  2 active torsions:
REMARK  status: ('A' for Active; 'I' for Inactive)
REMARK    1  A    between atoms: O_1  and  C_2
REMARK    2  A    between atoms: C_7  and  O_8
REMARK                            x       y       z     vdW  Elec       q    Type
REMARK                         _______ _______ _______ _____ _____    ______ ____
ROOT
ATOM      1  C   UNL     1     -12.717   7.085  25.016  0.00  0.00    +0.000 A 
ATOM      2  C   UNL     1     -11.639   6.268  25.336  0.00  0.00    +0.000 A 
ATOM      3  C   UNL     1     -11.715   5.452  26.469  0.00  0.00    +0.000 A 
ATOM      4  C   UNL     1     -12.863   5.460  27.268  0.00  0.00    +0.000 A 
ATOM      5  C   UNL     1     -13.943   6.282  26.940  0.00  0.00    +0.000 A 
ATOM      6  C   UNL     1     -13.859   7.088  25.813  0.00  0.00    +0.000 A 
ENDROOT
BRANCH   1   7
ATOM      7  O   UNL     1     -12.703   7.905  23.921  0.00  0.00    +0.000 OA
ATOM      8  H   UNL     1     -11.784   8.184  23.769  0.00  0.00    +0.000 HD
ENDBRANCH   1   7
BRANCH   6   9
ATOM      9  O   UNL     1     -14.917   7.890  25.488  0.00  0.00    +0.000 OA
ATOM     10  H   UNL     1     -14.649   8.779  25.794  0.00  0.00    +0.000 HD
ENDBRANCH   6   9
TORSDOF 2
ENDMDL
MODEL 9
REMARK VINA RESULT:    -4.002      3.465      4.058
REMARK INTER + INTRA:          -4.236
REMARK INTER:                  -4.236
REMARK INTRA:                   0.000
REMARK UNBOUND:                 0.000
REMARK  Name = C:\Users\sofiya chavarekar\OneDrive\Assignment- Module 1\PROJECT(AI-based drug target identification for SDH-related rare disorders)\Data\Ligands\PDB\Ligand_0069.pdb
REMARK  2 active torsions:
REMARK  status: ('A' for Active; 'I' for Inactive)
REMARK    1  A    between atoms: O_1  and  C_2
REMARK    2  A    between atoms: C_7  and  O_8
REMARK                            x       y       z     vdW  Elec       q    Type
REMARK                         _______ _______ _______ _____ _____    ______ ____
ROOT
ATOM      1  C   UNL     1     -13.325   6.436  26.735  0.00  0.00    +0.000 A 
ATOM      2  C   UNL     1     -12.246   5.592  26.974  0.00  0.00    +0.000 A 
ATOM      3  C   UNL     1     -11.163   5.605  26.090  0.00  0.00    +0.000 A 
ATOM      4  C   UNL     1     -11.167   6.457  24.980  0.00  0.00    +0.000 A 
ATOM      5  C   UNL     1     -12.253   7.303  24.748  0.00  0.00    +0.000 A 
ATOM      6  C   UNL     1     -13.324   7.284  25.630  0.00  0.00    +0.000 A 
ENDROOT
BRANCH   1   7
ATOM      7  O   UNL     1     -14.413   6.469  27.562  0.00  0.00    +0.000 OA
ATOM      8  H   UNL     1     -14.997   7.185  27.260  0.00  0.00    +0.000 HD
ENDBRANCH   1   7
BRANCH   6   9
ATOM      9  O   UNL     1     -14.386   8.114  25.406  0.00  0.00    +0.000 OA
ATOM     10  H   UNL     1     -15.022   7.563  24.909  0.00  0.00    +0.000 HD
ENDBRANCH   6   9
TORSDOF 2
ENDMDL
