MODEL 1
REMARK VINA RESULT:    -4.171      0.000      0.000
REMARK INTER + INTRA:          -5.528
REMARK INTER:                  -5.390
REMARK INTRA:                  -0.138
REMARK UNBOUND:                -0.138
REMARK  Name = C:\Users\sofiya chavarekar\OneDrive\Assignment- Module 1\PROJECT(AI-based drug target identification for SDH-related rare disorders)\Data\Ligands\PDB\Ligand_0090.pdb
REMARK  7 active torsions:
REMARK  status: ('A' for Active; 'I' for Inactive)
REMARK    1  A    between atoms: C_1  and  C_2
REMARK    2  A    between atoms: C_2  and  C_3
REMARK    3  A    between atoms: C_3  and  O_4
REMARK    4  A    between atoms: O_4  and  C_5
REMARK    5  A    between atoms: C_5  and  C_7
REMARK    6  A    between atoms: C_7  and  C_8
REMARK    7  A    between atoms: C_8  and  C_9
REMARK                            x       y       z     vdW  Elec       q    Type
REMARK                         _______ _______ _______ _____ _____    ______ ____
ROOT
ATOM      1  C   UNL     1     -12.907   6.799  25.852  0.00  0.00    +0.000 C 
ATOM      2  O   UNL     1     -13.036   7.063  24.664  0.00  0.00    +0.000 OA
ENDROOT
BRANCH   1   3
ATOM      3  O   UNL     1     -13.598   7.391  26.867  0.00  0.00    +0.000 OA
BRANCH   3   4
ATOM      4  C   UNL     1     -14.909   7.872  26.527  0.00  0.00    +0.000 C 
BRANCH   4   6
ATOM      5  C   UNL     1     -14.959  10.297  25.774  0.00  0.00    +0.000 C 
ATOM      6  C   UNL     1     -15.154   9.324  26.925  0.00  0.00    +0.000 C 
ENDBRANCH   4   6
ENDBRANCH   3   4
ENDBRANCH   1   3
BRANCH   1   7
ATOM      7  C   UNL     1     -11.931   5.795  26.420  0.00  0.00    +0.000 C 
BRANCH   7   8
ATOM      8  C   UNL     1     -10.704   5.586  25.529  0.00  0.00    +0.000 C 
ATOM      9  C   UNL     1      -9.852   4.392  25.943  0.00  0.00    +0.000 C 
ENDBRANCH   7   8
ENDBRANCH   1   7
TORSDOF 5
ENDMDL
MODEL 2
REMARK VINA RESULT:    -4.040      1.648      2.542
REMARK INTER + INTRA:          -5.358
REMARK INTER:                  -5.142
REMARK INTRA:                  -0.216
REMARK UNBOUND:                -0.138
REMARK  Name = C:\Users\sofiya chavarekar\OneDrive\Assignment- Module 1\PROJECT(AI-based drug target identification for SDH-related rare disorders)\Data\Ligands\PDB\Ligand_0090.pdb
REMARK  7 active torsions:
REMARK  status: ('A' for Active; 'I' for Inactive)
REMARK    1  A    between atoms: C_1  and  C_2
REMARK    2  A    between atoms: C_2  and  C_3
REMARK    3  A    between atoms: C_3  and  O_4
REMARK    4  A    between atoms: O_4  and  C_5
REMARK    5  A    between atoms: C_5  and  C_7
REMARK    6  A    between atoms: C_7  and  C_8
REMARK    7  A    between atoms: C_8  and  C_9
REMARK                            x       y       z     vdW  Elec       q    Type
REMARK                         _______ _______ _______ _____ _____    ______ ____
ROOT
ATOM      1  C   UNL     1     -12.687   6.727  25.819  0.00  0.00    +0.000 C 
ATOM      2  O   UNL     1     -12.705   7.069  24.644  0.00  0.00    +0.000 OA
ENDROOT
BRANCH   1   3
ATOM      3  O   UNL     1     -13.599   7.102  26.759  0.00  0.00    +0.000 OA
BRANCH   3   4
ATOM      4  C   UNL     1     -14.923   6.571  26.587  0.00  0.00    +0.000 C 
BRANCH   4   6
ATOM      5  C   UNL     1     -15.226   4.081  26.188  0.00  0.00    +0.000 C 
ATOM      6  C   UNL     1     -15.120   5.195  27.215  0.00  0.00    +0.000 C 
ENDBRANCH   4   6
ENDBRANCH   3   4
ENDBRANCH   1   3
BRANCH   1   7
ATOM      7  C   UNL     1     -11.630   5.854  26.455  0.00  0.00    +0.000 C 
BRANCH   7   8
ATOM      8  C   UNL     1     -10.536   5.430  25.473  0.00  0.00    +0.000 C 
ATOM      9  C   UNL     1      -9.733   4.223  25.946  0.00  0.00    +0.000 C 
ENDBRANCH   7   8
ENDBRANCH   1   7
TORSDOF 5
ENDMDL
MODEL 3
REMARK VINA RESULT:    -3.803      1.964      4.316
REMARK INTER + INTRA:          -5.052
REMARK INTER:                  -4.805
REMARK INTRA:                  -0.247
REMARK UNBOUND:                -0.138
REMARK  Name = C:\Users\sofiya chavarekar\OneDrive\Assignment- Module 1\PROJECT(AI-based drug target identification for SDH-related rare disorders)\Data\Ligands\PDB\Ligand_0090.pdb
REMARK  7 active torsions:
REMARK  status: ('A' for Active; 'I' for Inactive)
REMARK    1  A    between atoms: C_1  and  C_2
REMARK    2  A    between atoms: C_2  and  C_3
REMARK    3  A    between atoms: C_3  and  O_4
REMARK    4  A    between atoms: O_4  and  C_5
REMARK    5  A    between atoms: C_5  and  C_7
REMARK    6  A    between atoms: C_7  and  C_8
REMARK    7  A    between atoms: C_8  and  C_9
REMARK                            x       y       z     vdW  Elec       q    Type
REMARK                         _______ _______ _______ _____ _____    ______ ____
ROOT
ATOM      1  C   UNL     1     -13.869   7.019  26.150  0.00  0.00    +0.000 C 
ATOM      2  O   UNL     1     -13.847   8.193  26.494  0.00  0.00    +0.000 OA
ENDROOT
BRANCH   1   3
ATOM      3  O   UNL     1     -13.157   6.491  25.115  0.00  0.00    +0.000 OA
BRANCH   3   4
ATOM      4  C   UNL     1     -11.733   6.664  25.190  0.00  0.00    +0.000 C 
BRANCH   4   6
ATOM      5  C   UNL     1     -10.025   4.818  25.547  0.00  0.00    +0.000 C 
ATOM      6  C   UNL     1     -11.052   5.735  26.190  0.00  0.00    +0.000 C 
ENDBRANCH   4   6
ENDBRANCH   3   4
ENDBRANCH   1   3
BRANCH   1   7
ATOM      7  C   UNL     1     -14.717   5.942  26.785  0.00  0.00    +0.000 C 
BRANCH   7   8
ATOM      8  C   UNL     1     -14.520   4.568  26.141  0.00  0.00    +0.000 C 
ATOM      9  C   UNL     1     -15.750   3.673  26.236  0.00  0.00    +0.000 C 
ENDBRANCH   7   8
ENDBRANCH   1   7
TORSDOF 5
ENDMDL
MODEL 4
REMARK VINA RESULT:    -3.637      1.069      5.125
REMARK INTER + INTRA:          -4.838
REMARK INTER:                  -4.742
REMARK INTRA:                  -0.096
REMARK UNBOUND:                -0.138
REMARK  Name = C:\Users\sofiya chavarekar\OneDrive\Assignment- Module 1\PROJECT(AI-based drug target identification for SDH-related rare disorders)\Data\Ligands\PDB\Ligand_0090.pdb
REMARK  7 active torsions:
REMARK  status: ('A' for Active; 'I' for Inactive)
REMARK    1  A    between atoms: C_1  and  C_2
REMARK    2  A    between atoms: C_2  and  C_3
REMARK    3  A    between atoms: C_3  and  O_4
REMARK    4  A    between atoms: O_4  and  C_5
REMARK    5  A    between atoms: C_5  and  C_7
REMARK    6  A    between atoms: C_7  and  C_8
REMARK    7  A    between atoms: C_8  and  C_9
REMARK                            x       y       z     vdW  Elec       q    Type
REMARK                         _______ _______ _______ _____ _____    ______ ____
ROOT
ATOM      1  C   UNL     1     -14.916   8.071  26.641  0.00  0.00    +0.000 C 
ATOM      2  O   UNL     1     -15.845   7.306  26.420  0.00  0.00    +0.000 OA
ENDROOT
BRANCH   1   3
ATOM      3  O   UNL     1     -13.603   7.712  26.705  0.00  0.00    +0.000 OA
BRANCH   3   4
ATOM      4  C   UNL     1     -13.199   6.671  25.802  0.00  0.00    +0.000 C 
BRANCH   4   6
ATOM      5  C   UNL     1     -10.961   5.489  26.018  0.00  0.00    +0.000 C 
ATOM      6  C   UNL     1     -11.711   6.690  25.466  0.00  0.00    +0.000 C 
ENDBRANCH   4   6
ENDBRANCH   3   4
ENDBRANCH   1   3
BRANCH   1   7
ATOM      7  C   UNL     1     -15.054   9.549  26.922  0.00  0.00    +0.000 C 
BRANCH   7   8
ATOM      8  C   UNL     1     -15.179  10.389  25.649  0.00  0.00    +0.000 C 
ATOM      9  C   UNL     1     -15.400  11.873  25.922  0.00  0.00    +0.000 C 
ENDBRANCH   7   8
ENDBRANCH   1   7
TORSDOF 5
ENDMDL
MODEL 5
REMARK VINA RESULT:    -3.603      2.752      4.372
REMARK INTER + INTRA:          -4.794
REMARK INTER:                  -4.593
REMARK INTRA:                  -0.201
REMARK UNBOUND:                -0.138
REMARK  Name = C:\Users\sofiya chavarekar\OneDrive\Assignment- Module 1\PROJECT(AI-based drug target identification for SDH-related rare disorders)\Data\Ligands\PDB\Ligand_0090.pdb
REMARK  7 active torsions:
REMARK  status: ('A' for Active; 'I' for Inactive)
REMARK    1  A    between atoms: C_1  and  C_2
REMARK    2  A    between atoms: C_2  and  C_3
REMARK    3  A    between atoms: C_3  and  O_4
REMARK    4  A    between atoms: O_4  and  C_5
REMARK    5  A    between atoms: C_5  and  C_7
REMARK    6  A    between atoms: C_7  and  C_8
REMARK    7  A    between atoms: C_8  and  C_9
REMARK                            x       y       z     vdW  Elec       q    Type
REMARK                         _______ _______ _______ _____ _____    ______ ____
ROOT
ATOM      1  C   UNL     1     -14.040   5.447  27.699  0.00  0.00    +0.000 C 
ATOM      2  O   UNL     1     -14.703   5.478  28.727  0.00  0.00    +0.000 OA
ENDROOT
BRANCH   1   3
ATOM      3  O   UNL     1     -12.969   6.246  27.432  0.00  0.00    +0.000 OA
BRANCH   3   4
ATOM      4  C   UNL     1     -12.974   6.879  26.143  0.00  0.00    +0.000 C 
BRANCH   4   6
ATOM      5  C   UNL     1     -10.828   5.546  25.875  0.00  0.00    +0.000 C 
ATOM      6  C   UNL     1     -11.673   6.702  25.366  0.00  0.00    +0.000 C 
ENDBRANCH   4   6
ENDBRANCH   3   4
ENDBRANCH   1   3
BRANCH   1   7
ATOM      7  C   UNL     1     -14.308   4.543  26.519  0.00  0.00    +0.000 C 
BRANCH   7   8
ATOM      8  C   UNL     1     -14.945   3.210  26.919  0.00  0.00    +0.000 C 
ATOM      9  C   UNL     1     -16.233   2.904  26.164  0.00  0.00    +0.000 C 
ENDBRANCH   7   8
ENDBRANCH   1   7
TORSDOF 5
ENDMDL
MODEL 6
REMARK VINA RESULT:    -3.566      2.282      3.439
REMARK INTER + INTRA:          -4.746
REMARK INTER:                  -4.390
REMARK INTRA:                  -0.355
REMARK UNBOUND:                -0.138
REMARK  Name = C:\Users\sofiya chavarekar\OneDrive\Assignment- Module 1\PROJECT(AI-based drug target identification for SDH-related rare disorders)\Data\Ligands\PDB\Ligand_0090.pdb
REMARK  7 active torsions:
REMARK  status: ('A' for Active; 'I' for Inactive)
REMARK    1  A    between atoms: C_1  and  C_2
REMARK    2  A    between atoms: C_2  and  C_3
REMARK    3  A    between atoms: C_3  and  O_4
REMARK    4  A    between atoms: O_4  and  C_5
REMARK    5  A    between atoms: C_5  and  C_7
REMARK    6  A    between atoms: C_7  and  C_8
REMARK    7  A    between atoms: C_8  and  C_9
REMARK                            x       y       z     vdW  Elec       q    Type
REMARK                         _______ _______ _______ _____ _____    ______ ____
ROOT
ATOM      1  C   UNL     1     -14.455   7.464  26.411  0.00  0.00    +0.000 C 
ATOM      2  O   UNL     1     -14.162   8.597  26.769  0.00  0.00    +0.000 OA
ENDROOT
BRANCH   1   3
ATOM      3  O   UNL     1     -15.500   6.736  26.894  0.00  0.00    +0.000 OA
BRANCH   3   4
ATOM      4  C   UNL     1     -15.147   5.531  27.593  0.00  0.00    +0.000 C 
BRANCH   4   6
ATOM      5  C   UNL     1     -15.569   3.523  26.097  0.00  0.00    +0.000 C 
ATOM      6  C   UNL     1     -16.056   4.347  27.277  0.00  0.00    +0.000 C 
ENDBRANCH   4   6
ENDBRANCH   3   4
ENDBRANCH   1   3
BRANCH   1   7
ATOM      7  C   UNL     1     -13.691   6.647  25.396  0.00  0.00    +0.000 C 
BRANCH   7   8
ATOM      8  C   UNL     1     -12.173   6.753  25.565  0.00  0.00    +0.000 C 
ATOM      9  C   UNL     1     -11.537   5.486  26.126  0.00  0.00    +0.000 C 
ENDBRANCH   7   8
ENDBRANCH   1   7
TORSDOF 5
ENDMDL
MODEL 7
REMARK VINA RESULT:    -3.249      1.755      2.207
REMARK INTER + INTRA:          -4.336
REMARK INTER:                  -4.220
REMARK INTRA:                  -0.116
REMARK UNBOUND:                -0.138
REMARK  Name = C:\Users\sofiya chavarekar\OneDrive\Assignment- Module 1\PROJECT(AI-based drug target identification for SDH-related rare disorders)\Data\Ligands\PDB\Ligand_0090.pdb
REMARK  7 active torsions:
REMARK  status: ('A' for Active; 'I' for Inactive)
REMARK    1  A    between atoms: C_1  and  C_2
REMARK    2  A    between atoms: C_2  and  C_3
REMARK    3  A    between atoms: C_3  and  O_4
REMARK    4  A    between atoms: O_4  and  C_5
REMARK    5  A    between atoms: C_5  and  C_7
REMARK    6  A    between atoms: C_7  and  C_8
REMARK    7  A    between atoms: C_8  and  C_9
REMARK                            x       y       z     vdW  Elec       q    Type
REMARK                         _______ _______ _______ _____ _____    ______ ____
ROOT
ATOM      1  C   UNL     1     -13.397   6.930  25.623  0.00  0.00    +0.000 C 
ATOM      2  O   UNL     1     -12.633   7.035  24.673  0.00  0.00    +0.000 OA
ENDROOT
BRANCH   1   3
ATOM      3  O   UNL     1     -13.702   7.929  26.499  0.00  0.00    +0.000 OA
BRANCH   3   4
ATOM      4  C   UNL     1     -15.077   8.346  26.509  0.00  0.00    +0.000 C 
BRANCH   4   6
ATOM      5  C   UNL     1     -16.331   9.499  28.393  0.00  0.00    +0.000 C 
ATOM      6  C   UNL     1     -15.319   9.647  27.269  0.00  0.00    +0.000 C 
ENDBRANCH   4   6
ENDBRANCH   3   4
ENDBRANCH   1   3
BRANCH   1   7
ATOM      7  C   UNL     1     -14.115   5.663  26.026  0.00  0.00    +0.000 C 
BRANCH   7   8
ATOM      8  C   UNL     1     -13.203   4.662  26.740  0.00  0.00    +0.000 C 
ATOM      9  C   UNL     1     -13.952   3.463  27.312  0.00  0.00    +0.000 C 
ENDBRANCH   7   8
ENDBRANCH   1   7
TORSDOF 5
ENDMDL
MODEL 8
REMARK VINA RESULT:    -3.081      1.835      4.829
REMARK INTER + INTRA:          -4.120
REMARK INTER:                  -3.749
REMARK INTRA:                  -0.370
REMARK UNBOUND:                -0.138
REMARK  Name = C:\Users\sofiya chavarekar\OneDrive\Assignment- Module 1\PROJECT(AI-based drug target identification for SDH-related rare disorders)\Data\Ligands\PDB\Ligand_0090.pdb
REMARK  7 active torsions:
REMARK  status: ('A' for Active; 'I' for Inactive)
REMARK    1  A    between atoms: C_1  and  C_2
REMARK    2  A    between atoms: C_2  and  C_3
REMARK    3  A    between atoms: C_3  and  O_4
REMARK    4  A    between atoms: O_4  and  C_5
REMARK    5  A    between atoms: C_5  and  C_7
REMARK    6  A    between atoms: C_7  and  C_8
REMARK    7  A    between atoms: C_8  and  C_9
REMARK                            x       y       z     vdW  Elec       q    Type
REMARK                         _______ _______ _______ _____ _____    ______ ____
ROOT
ATOM      1  C   UNL     1     -14.838   9.186  26.498  0.00  0.00    +0.000 C 
ATOM      2  O   UNL     1     -14.598   9.948  25.571  0.00  0.00    +0.000 OA
ENDROOT
BRANCH   1   3
ATOM      3  O   UNL     1     -14.063   8.125  26.861  0.00  0.00    +0.000 OA
BRANCH   3   4
ATOM      4  C   UNL     1     -13.415   7.432  25.783  0.00  0.00    +0.000 C 
BRANCH   4   6
ATOM      5  C   UNL     1     -13.576   5.444  27.357  0.00  0.00    +0.000 C 
ATOM      6  C   UNL     1     -12.849   6.071  26.179  0.00  0.00    +0.000 C 
ENDBRANCH   4   6
ENDBRANCH   3   4
ENDBRANCH   1   3
BRANCH   1   7
ATOM      7  C   UNL     1     -16.057   9.254  27.388  0.00  0.00    +0.000 C 
BRANCH   7   8
ATOM      8  C   UNL     1     -16.417   7.905  28.012  0.00  0.00    +0.000 C 
ATOM      9  C   UNL     1     -17.419   7.104  27.189  0.00  0.00    +0.000 C 
ENDBRANCH   7   8
ENDBRANCH   1   7
TORSDOF 5
ENDMDL
