MODEL 1
REMARK VINA RESULT:    -4.723      0.000      0.000
REMARK INTER + INTRA:          -9.032
REMARK INTER:                  -8.175
REMARK INTRA:                  -0.857
REMARK UNBOUND:                -0.857
REMARK  Name = C:\Users\sofiya chavarekar\OneDrive\Assignment- Module 1\PROJECT(AI-based drug target identification for SDH-related rare disorders)\Data\Ligands\PDB\Ligand_0086.pdb
REMARK  14 active torsions:
REMARK  status: ('A' for Active; 'I' for Inactive)
REMARK    1  A    between atoms: C_1  and  C_2
REMARK    2  A    between atoms: C_2  and  C_3
REMARK    3  A    between atoms: C_3  and  C_4
REMARK    4  A    between atoms: C_4  and  C_5
REMARK    5  A    between atoms: C_5  and  C_6
REMARK    6  A    between atoms: C_6  and  C_7
REMARK    7  A    between atoms: C_7  and  C_8
REMARK    8  A    between atoms: C_8  and  C_9
REMARK    9  A    between atoms: C_9  and  C_10
REMARK   10  A    between atoms: C_10  and  C_11
REMARK   11  A    between atoms: C_11  and  C_12
REMARK   12  A    between atoms: C_12  and  C_13
REMARK   13  A    between atoms: C_13  and  C_14
REMARK   14  A    between atoms: C_14  and  O_16
REMARK                            x       y       z     vdW  Elec       q    Type
REMARK                         _______ _______ _______ _____ _____    ______ ____
ROOT
ATOM      1  C   UNL     1     -16.273   2.843  28.067  0.00  0.00    +0.000 C 
ENDROOT
BRANCH   1   2
ATOM      2  C   UNL     1     -15.964   2.733  26.569  0.00  0.00    +0.000 C 
BRANCH   2   3
ATOM      3  C   UNL     1     -15.073   3.887  26.092  0.00  0.00    +0.000 C 
BRANCH   3   4
ATOM      4  C   UNL     1     -14.896   4.955  27.178  0.00  0.00    +0.000 C 
BRANCH   4   5
ATOM      5  C   UNL     1     -15.237   6.355  26.656  0.00  0.00    +0.000 C 
BRANCH   5   6
ATOM      6  C   UNL     1     -14.031   7.018  25.979  0.00  0.00    +0.000 C 
BRANCH   6   7
ATOM      7  C   UNL     1     -12.711   6.566  26.610  0.00  0.00    +0.000 C 
BRANCH   7   9
ATOM      8  C   UNL     1     -10.703   5.150  26.037  0.00  0.00    +0.000 C 
ATOM      9  C   UNL     1     -11.659   6.230  25.551  0.00  0.00    +0.000 C 
ENDBRANCH   7   9
ENDBRANCH   6   7
ENDBRANCH   5   6
ENDBRANCH   4   5
ENDBRANCH   3   4
ENDBRANCH   2   3
ENDBRANCH   1   2
BRANCH   1  10
ATOM     10  C   UNL     1     -15.519   1.788  28.883  0.00  0.00    +0.000 C 
BRANCH  10  11
ATOM     11  C   UNL     1     -14.993   0.655  27.993  0.00  0.00    +0.000 C 
BRANCH  11  12
ATOM     12  C   UNL     1     -13.670   0.097  28.524  0.00  0.00    +0.000 C 
BRANCH  12  13
ATOM     13  C   UNL     1     -13.844  -0.644  29.851  0.00  0.00    +0.000 C 
BRANCH  13  14
ATOM     14  C   UNL     1     -12.609  -1.435  30.194  0.00  0.00    +0.000 C 
ATOM     15  O   UNL     1     -11.506  -1.341  29.679  0.00  0.00    +0.000 OA
BRANCH  14  16
ATOM     16  O   UNL     1     -12.836  -2.356  31.150  0.00  0.00    +0.000 OA
ATOM     17  H   UNL     1     -12.117  -3.010  31.024  0.00  0.00    +0.000 HD
ENDBRANCH  14  16
ENDBRANCH  13  14
ENDBRANCH  12  13
ENDBRANCH  11  12
ENDBRANCH  10  11
ENDBRANCH   1  10
TORSDOF 13
ENDMDL
MODEL 2
REMARK VINA RESULT:    -4.562      2.781      6.275
REMARK INTER + INTRA:          -8.753
REMARK INTER:                  -7.876
REMARK INTRA:                  -0.877
REMARK UNBOUND:                -0.857
REMARK  Name = C:\Users\sofiya chavarekar\OneDrive\Assignment- Module 1\PROJECT(AI-based drug target identification for SDH-related rare disorders)\Data\Ligands\PDB\Ligand_0086.pdb
REMARK  14 active torsions:
REMARK  status: ('A' for Active; 'I' for Inactive)
REMARK    1  A    between atoms: C_1  and  C_2
REMARK    2  A    between atoms: C_2  and  C_3
REMARK    3  A    between atoms: C_3  and  C_4
REMARK    4  A    between atoms: C_4  and  C_5
REMARK    5  A    between atoms: C_5  and  C_6
REMARK    6  A    between atoms: C_6  and  C_7
REMARK    7  A    between atoms: C_7  and  C_8
REMARK    8  A    between atoms: C_8  and  C_9
REMARK    9  A    between atoms: C_9  and  C_10
REMARK   10  A    between atoms: C_10  and  C_11
REMARK   11  A    between atoms: C_11  and  C_12
REMARK   12  A    between atoms: C_12  and  C_13
REMARK   13  A    between atoms: C_13  and  C_14
REMARK   14  A    between atoms: C_14  and  O_16
REMARK                            x       y       z     vdW  Elec       q    Type
REMARK                         _______ _______ _______ _____ _____    ______ ____
ROOT
ATOM      1  C   UNL     1     -14.340   7.016  26.379  0.00  0.00    +0.000 C 
ENDROOT
BRANCH   1   2
ATOM      2  C   UNL     1     -14.637   5.864  27.346  0.00  0.00    +0.000 C 
BRANCH   2   3
ATOM      3  C   UNL     1     -16.023   5.257  27.091  0.00  0.00    +0.000 C 
BRANCH   3   4
ATOM      4  C   UNL     1     -15.925   3.821  26.564  0.00  0.00    +0.000 C 
BRANCH   4   5
ATOM      5  C   UNL     1     -14.641   3.130  27.036  0.00  0.00    +0.000 C 
BRANCH   5   6
ATOM      6  C   UNL     1     -14.896   2.224  28.247  0.00  0.00    +0.000 C 
BRANCH   6   7
ATOM      7  C   UNL     1     -14.892   0.743  27.855  0.00  0.00    +0.000 C 
BRANCH   7   9
ATOM      8  C   UNL     1     -12.791  -0.414  28.638  0.00  0.00    +0.000 C 
ATOM      9  C   UNL     1     -14.256  -0.131  28.938  0.00  0.00    +0.000 C 
ENDBRANCH   7   9
ENDBRANCH   6   7
ENDBRANCH   5   6
ENDBRANCH   4   5
ENDBRANCH   3   4
ENDBRANCH   2   3
ENDBRANCH   1   2
BRANCH   1  10
ATOM     10  C   UNL     1     -12.994   6.830  25.669  0.00  0.00    +0.000 C 
BRANCH  10  11
ATOM     11  C   UNL     1     -12.284   5.551  26.129  0.00  0.00    +0.000 C 
BRANCH  11  12
ATOM     12  C   UNL     1     -10.763   5.728  26.128  0.00  0.00    +0.000 C 
BRANCH  12  13
ATOM     13  C   UNL     1     -10.124   5.236  24.828  0.00  0.00    +0.000 C 
BRANCH  13  14
ATOM     14  C   UNL     1      -9.360   3.957  25.050  0.00  0.00    +0.000 C 
ATOM     15  O   UNL     1      -9.385   3.247  26.043  0.00  0.00    +0.000 OA
BRANCH  14  16
ATOM     16  O   UNL     1      -8.551   3.655  24.018  0.00  0.00    +0.000 OA
ATOM     17  H   UNL     1      -7.863   4.353  24.044  0.00  0.00    +0.000 HD
ENDBRANCH  14  16
ENDBRANCH  13  14
ENDBRANCH  12  13
ENDBRANCH  11  12
ENDBRANCH  10  11
ENDBRANCH   1  10
TORSDOF 13
ENDMDL
MODEL 3
REMARK VINA RESULT:    -4.558      1.831      3.257
REMARK INTER + INTRA:          -8.746
REMARK INTER:                  -8.115
REMARK INTRA:                  -0.631
REMARK UNBOUND:                -0.857
REMARK  Name = C:\Users\sofiya chavarekar\OneDrive\Assignment- Module 1\PROJECT(AI-based drug target identification for SDH-related rare disorders)\Data\Ligands\PDB\Ligand_0086.pdb
REMARK  14 active torsions:
REMARK  status: ('A' for Active; 'I' for Inactive)
REMARK    1  A    between atoms: C_1  and  C_2
REMARK    2  A    between atoms: C_2  and  C_3
REMARK    3  A    between atoms: C_3  and  C_4
REMARK    4  A    between atoms: C_4  and  C_5
REMARK    5  A    between atoms: C_5  and  C_6
REMARK    6  A    between atoms: C_6  and  C_7
REMARK    7  A    between atoms: C_7  and  C_8
REMARK    8  A    between atoms: C_8  and  C_9
REMARK    9  A    between atoms: C_9  and  C_10
REMARK   10  A    between atoms: C_10  and  C_11
REMARK   11  A    between atoms: C_11  and  C_12
REMARK   12  A    between atoms: C_12  and  C_13
REMARK   13  A    between atoms: C_13  and  C_14
REMARK   14  A    between atoms: C_14  and  O_16
REMARK                            x       y       z     vdW  Elec       q    Type
REMARK                         _______ _______ _______ _____ _____    ______ ____
ROOT
ATOM      1  C   UNL     1     -14.153   4.086  27.646  0.00  0.00    +0.000 C 
ENDROOT
BRANCH   1   2
ATOM      2  C   UNL     1     -12.838   4.405  26.923  0.00  0.00    +0.000 C 
BRANCH   2   3
ATOM      3  C   UNL     1     -12.443   5.877  27.098  0.00  0.00    +0.000 C 
BRANCH   3   4
ATOM      4  C   UNL     1     -12.312   6.593  25.749  0.00  0.00    +0.000 C 
BRANCH   4   5
ATOM      5  C   UNL     1     -13.682   6.918  25.144  0.00  0.00    +0.000 C 
BRANCH   5   6
ATOM      6  C   UNL     1     -14.633   7.525  26.184  0.00  0.00    +0.000 C 
BRANCH   6   7
ATOM      7  C   UNL     1     -14.537   9.053  26.213  0.00  0.00    +0.000 C 
BRANCH   7   9
ATOM      8  C   UNL     1     -15.803  11.210  26.544  0.00  0.00    +0.000 C 
ATOM      9  C   UNL     1     -15.915   9.708  26.325  0.00  0.00    +0.000 C 
ENDBRANCH   7   9
ENDBRANCH   6   7
ENDBRANCH   5   6
ENDBRANCH   4   5
ENDBRANCH   3   4
ENDBRANCH   2   3
ENDBRANCH   1   2
BRANCH   1  10
ATOM     10  C   UNL     1     -14.641   2.666  27.337  0.00  0.00    +0.000 C 
BRANCH  10  11
ATOM     11  C   UNL     1     -14.713   1.805  28.604  0.00  0.00    +0.000 C 
BRANCH  11  12
ATOM     12  C   UNL     1     -13.622   0.731  28.611  0.00  0.00    +0.000 C 
BRANCH  12  13
ATOM     13  C   UNL     1     -14.111  -0.589  29.209  0.00  0.00    +0.000 C 
BRANCH  13  14
ATOM     14  C   UNL     1     -13.238  -1.018  30.359  0.00  0.00    +0.000 C 
ATOM     15  O   UNL     1     -13.307  -2.062  30.988  0.00  0.00    +0.000 OA
BRANCH  14  16
ATOM     16  O   UNL     1     -12.337  -0.077  30.701  0.00  0.00    +0.000 OA
ATOM     17  H   UNL     1     -11.474  -0.532  30.608  0.00  0.00    +0.000 HD
ENDBRANCH  14  16
ENDBRANCH  13  14
ENDBRANCH  12  13
ENDBRANCH  11  12
ENDBRANCH  10  11
ENDBRANCH   1  10
TORSDOF 13
ENDMDL
MODEL 4
REMARK VINA RESULT:    -4.461      1.283      1.696
REMARK INTER + INTRA:          -8.578
REMARK INTER:                  -7.557
REMARK INTRA:                  -1.022
REMARK UNBOUND:                -0.857
REMARK  Name = C:\Users\sofiya chavarekar\OneDrive\Assignment- Module 1\PROJECT(AI-based drug target identification for SDH-related rare disorders)\Data\Ligands\PDB\Ligand_0086.pdb
REMARK  14 active torsions:
REMARK  status: ('A' for Active; 'I' for Inactive)
REMARK    1  A    between atoms: C_1  and  C_2
REMARK    2  A    between atoms: C_2  and  C_3
REMARK    3  A    between atoms: C_3  and  C_4
REMARK    4  A    between atoms: C_4  and  C_5
REMARK    5  A    between atoms: C_5  and  C_6
REMARK    6  A    between atoms: C_6  and  C_7
REMARK    7  A    between atoms: C_7  and  C_8
REMARK    8  A    between atoms: C_8  and  C_9
REMARK    9  A    between atoms: C_9  and  C_10
REMARK   10  A    between atoms: C_10  and  C_11
REMARK   11  A    between atoms: C_11  and  C_12
REMARK   12  A    between atoms: C_12  and  C_13
REMARK   13  A    between atoms: C_13  and  C_14
REMARK   14  A    between atoms: C_14  and  O_16
REMARK                            x       y       z     vdW  Elec       q    Type
REMARK                         _______ _______ _______ _____ _____    ______ ____
ROOT
ATOM      1  C   UNL     1     -16.454   2.097  28.689  0.00  0.00    +0.000 C 
ENDROOT
BRANCH   1   2
ATOM      2  C   UNL     1     -15.917   3.520  28.882  0.00  0.00    +0.000 C 
BRANCH   2   3
ATOM      3  C   UNL     1     -14.394   3.576  28.713  0.00  0.00    +0.000 C 
BRANCH   3   4
ATOM      4  C   UNL     1     -13.949   4.851  27.986  0.00  0.00    +0.000 C 
BRANCH   4   5
ATOM      5  C   UNL     1     -14.469   4.892  26.545  0.00  0.00    +0.000 C 
BRANCH   5   6
ATOM      6  C   UNL     1     -14.286   6.279  25.915  0.00  0.00    +0.000 C 
BRANCH   6   7
ATOM      7  C   UNL     1     -12.952   6.912  26.321  0.00  0.00    +0.000 C 
BRANCH   7   9
ATOM      8  C   UNL     1     -10.824   5.583  26.063  0.00  0.00    +0.000 C 
ATOM      9  C   UNL     1     -11.819   6.507  25.377  0.00  0.00    +0.000 C 
ENDBRANCH   7   9
ENDBRANCH   6   7
ENDBRANCH   5   6
ENDBRANCH   4   5
ENDBRANCH   3   4
ENDBRANCH   2   3
ENDBRANCH   1   2
BRANCH   1  10
ATOM     10  C   UNL     1     -16.389   1.283  29.986  0.00  0.00    +0.000 C 
BRANCH  10  11
ATOM     11  C   UNL     1     -15.656  -0.048  29.784  0.00  0.00    +0.000 C 
BRANCH  11  12
ATOM     12  C   UNL     1     -14.866  -0.055  28.472  0.00  0.00    +0.000 C 
BRANCH  12  13
ATOM     13  C   UNL     1     -13.596  -0.903  28.564  0.00  0.00    +0.000 C 
BRANCH  13  14
ATOM     14  C   UNL     1     -12.698  -0.414  29.670  0.00  0.00    +0.000 C 
ATOM     15  O   UNL     1     -12.362  -1.026  30.672  0.00  0.00    +0.000 OA
BRANCH  14  16
ATOM     16  O   UNL     1     -12.300   0.859  29.485  0.00  0.00    +0.000 OA
ATOM     17  H   UNL     1     -11.387   0.772  29.139  0.00  0.00    +0.000 HD
ENDBRANCH  14  16
ENDBRANCH  13  14
ENDBRANCH  12  13
ENDBRANCH  11  12
ENDBRANCH  10  11
ENDBRANCH   1  10
TORSDOF 13
ENDMDL
MODEL 5
REMARK VINA RESULT:    -4.417      2.905      3.360
REMARK INTER + INTRA:          -8.502
REMARK INTER:                  -7.799
REMARK INTRA:                  -0.703
REMARK UNBOUND:                -0.857
REMARK  Name = C:\Users\sofiya chavarekar\OneDrive\Assignment- Module 1\PROJECT(AI-based drug target identification for SDH-related rare disorders)\Data\Ligands\PDB\Ligand_0086.pdb
REMARK  14 active torsions:
REMARK  status: ('A' for Active; 'I' for Inactive)
REMARK    1  A    between atoms: C_1  and  C_2
REMARK    2  A    between atoms: C_2  and  C_3
REMARK    3  A    between atoms: C_3  and  C_4
REMARK    4  A    between atoms: C_4  and  C_5
REMARK    5  A    between atoms: C_5  and  C_6
REMARK    6  A    between atoms: C_6  and  C_7
REMARK    7  A    between atoms: C_7  and  C_8
REMARK    8  A    between atoms: C_8  and  C_9
REMARK    9  A    between atoms: C_9  and  C_10
REMARK   10  A    between atoms: C_10  and  C_11
REMARK   11  A    between atoms: C_11  and  C_12
REMARK   12  A    between atoms: C_12  and  C_13
REMARK   13  A    between atoms: C_13  and  C_14
REMARK   14  A    between atoms: C_14  and  O_16
REMARK                            x       y       z     vdW  Elec       q    Type
REMARK                         _______ _______ _______ _____ _____    ______ ____
ROOT
ATOM      1  C   UNL     1     -17.050   2.036  28.113  0.00  0.00    +0.000 C 
ENDROOT
BRANCH   1   2
ATOM      2  C   UNL     1     -16.058   2.074  26.945  0.00  0.00    +0.000 C 
BRANCH   2   3
ATOM      3  C   UNL     1     -14.702   2.649  27.375  0.00  0.00    +0.000 C 
BRANCH   3   4
ATOM      4  C   UNL     1     -14.469   4.048  26.793  0.00  0.00    +0.000 C 
BRANCH   4   5
ATOM      5  C   UNL     1     -13.908   5.012  27.844  0.00  0.00    +0.000 C 
BRANCH   5   6
ATOM      6  C   UNL     1     -13.075   6.129  27.202  0.00  0.00    +0.000 C 
BRANCH   6   7
ATOM      7  C   UNL     1     -12.388   5.655  25.918  0.00  0.00    +0.000 C 
BRANCH   7   9
ATOM      8  C   UNL     1     -10.098   4.598  25.930  0.00  0.00    +0.000 C 
ATOM      9  C   UNL     1     -10.879   5.903  25.954  0.00  0.00    +0.000 C 
ENDBRANCH   7   9
ENDBRANCH   6   7
ENDBRANCH   5   6
ENDBRANCH   4   5
ENDBRANCH   3   4
ENDBRANCH   2   3
ENDBRANCH   1   2
BRANCH   1  10
ATOM     10  C   UNL     1     -16.335   2.080  29.468  0.00  0.00    +0.000 C 
BRANCH  10  11
ATOM     11  C   UNL     1     -17.237   1.575  30.600  0.00  0.00    +0.000 C 
BRANCH  11  12
ATOM     12  C   UNL     1     -16.952   0.107  30.927  0.00  0.00    +0.000 C 
BRANCH  12  13
ATOM     13  C   UNL     1     -16.301  -0.066  32.300  0.00  0.00    +0.000 C 
BRANCH  13  14
ATOM     14  C   UNL     1     -17.278  -0.638  33.294  0.00  0.00    +0.000 C 
ATOM     15  O   UNL     1     -18.496  -0.626  33.221  0.00  0.00    +0.000 OA
BRANCH  14  16
ATOM     16  O   UNL     1     -16.667  -1.161  34.374  0.00  0.00    +0.000 OA
ATOM     17  H   UNL     1     -16.938  -0.570  35.108  0.00  0.00    +0.000 HD
ENDBRANCH  14  16
ENDBRANCH  13  14
ENDBRANCH  12  13
ENDBRANCH  11  12
ENDBRANCH  10  11
ENDBRANCH   1  10
TORSDOF 13
ENDMDL
MODEL 6
REMARK VINA RESULT:    -4.404      1.421      2.602
REMARK INTER + INTRA:          -8.479
REMARK INTER:                  -7.188
REMARK INTRA:                  -1.291
REMARK UNBOUND:                -0.857
REMARK  Name = C:\Users\sofiya chavarekar\OneDrive\Assignment- Module 1\PROJECT(AI-based drug target identification for SDH-related rare disorders)\Data\Ligands\PDB\Ligand_0086.pdb
REMARK  14 active torsions:
REMARK  status: ('A' for Active; 'I' for Inactive)
REMARK    1  A    between atoms: C_1  and  C_2
REMARK    2  A    between atoms: C_2  and  C_3
REMARK    3  A    between atoms: C_3  and  C_4
REMARK    4  A    between atoms: C_4  and  C_5
REMARK    5  A    between atoms: C_5  and  C_6
REMARK    6  A    between atoms: C_6  and  C_7
REMARK    7  A    between atoms: C_7  and  C_8
REMARK    8  A    between atoms: C_8  and  C_9
REMARK    9  A    between atoms: C_9  and  C_10
REMARK   10  A    between atoms: C_10  and  C_11
REMARK   11  A    between atoms: C_11  and  C_12
REMARK   12  A    between atoms: C_12  and  C_13
REMARK   13  A    between atoms: C_13  and  C_14
REMARK   14  A    between atoms: C_14  and  O_16
REMARK                            x       y       z     vdW  Elec       q    Type
REMARK                         _______ _______ _______ _____ _____    ______ ____
ROOT
ATOM      1  C   UNL     1     -16.242   2.747  26.663  0.00  0.00    +0.000 C 
ENDROOT
BRANCH   1   2
ATOM      2  C   UNL     1     -15.216   3.748  26.119  0.00  0.00    +0.000 C 
BRANCH   2   3
ATOM      3  C   UNL     1     -13.977   3.831  27.020  0.00  0.00    +0.000 C 
BRANCH   3   4
ATOM      4  C   UNL     1     -13.121   5.060  26.695  0.00  0.00    +0.000 C 
BRANCH   4   5
ATOM      5  C   UNL     1     -13.790   5.957  25.648  0.00  0.00    +0.000 C 
BRANCH   5   6
ATOM      6  C   UNL     1     -13.887   7.412  26.125  0.00  0.00    +0.000 C 
BRANCH   6   7
ATOM      7  C   UNL     1     -15.344   7.867  26.257  0.00  0.00    +0.000 C 
BRANCH   7   9
ATOM      8  C   UNL     1     -17.216   6.528  27.290  0.00  0.00    +0.000 C 
ATOM      9  C   UNL     1     -15.979   7.372  27.558  0.00  0.00    +0.000 C 
ENDBRANCH   7   9
ENDBRANCH   6   7
ENDBRANCH   5   6
ENDBRANCH   4   5
ENDBRANCH   3   4
ENDBRANCH   2   3
ENDBRANCH   1   2
BRANCH   1  10
ATOM     10  C   UNL     1     -15.587   1.418  27.057  0.00  0.00    +0.000 C 
BRANCH  10  11
ATOM     11  C   UNL     1     -16.035   0.958  28.450  0.00  0.00    +0.000 C 
BRANCH  11  12
ATOM     12  C   UNL     1     -14.950   0.125  29.137  0.00  0.00    +0.000 C 
BRANCH  12  13
ATOM     13  C   UNL     1     -13.541   0.544  28.714  0.00  0.00    +0.000 C 
BRANCH  13  14
ATOM     14  C   UNL     1     -12.499  -0.329  29.362  0.00  0.00    +0.000 C 
ATOM     15  O   UNL     1     -11.680  -1.040  28.801  0.00  0.00    +0.000 OA
BRANCH  14  16
ATOM     16  O   UNL     1     -12.571  -0.305  30.706  0.00  0.00    +0.000 OA
ATOM     17  H   UNL     1     -12.056   0.491  30.956  0.00  0.00    +0.000 HD
ENDBRANCH  14  16
ENDBRANCH  13  14
ENDBRANCH  12  13
ENDBRANCH  11  12
ENDBRANCH  10  11
ENDBRANCH   1  10
TORSDOF 13
ENDMDL
MODEL 7
REMARK VINA RESULT:    -4.246      4.637      6.532
REMARK INTER + INTRA:          -8.206
REMARK INTER:                  -6.848
REMARK INTRA:                  -1.358
REMARK UNBOUND:                -0.857
REMARK  Name = C:\Users\sofiya chavarekar\OneDrive\Assignment- Module 1\PROJECT(AI-based drug target identification for SDH-related rare disorders)\Data\Ligands\PDB\Ligand_0086.pdb
REMARK  14 active torsions:
REMARK  status: ('A' for Active; 'I' for Inactive)
REMARK    1  A    between atoms: C_1  and  C_2
REMARK    2  A    between atoms: C_2  and  C_3
REMARK    3  A    between atoms: C_3  and  C_4
REMARK    4  A    between atoms: C_4  and  C_5
REMARK    5  A    between atoms: C_5  and  C_6
REMARK    6  A    between atoms: C_6  and  C_7
REMARK    7  A    between atoms: C_7  and  C_8
REMARK    8  A    between atoms: C_8  and  C_9
REMARK    9  A    between atoms: C_9  and  C_10
REMARK   10  A    between atoms: C_10  and  C_11
REMARK   11  A    between atoms: C_11  and  C_12
REMARK   12  A    between atoms: C_12  and  C_13
REMARK   13  A    between atoms: C_13  and  C_14
REMARK   14  A    between atoms: C_14  and  O_16
REMARK                            x       y       z     vdW  Elec       q    Type
REMARK                         _______ _______ _______ _____ _____    ______ ____
ROOT
ATOM      1  C   UNL     1     -17.396   0.502  28.859  0.00  0.00    +0.000 C 
ENDROOT
BRANCH   1   2
ATOM      2  C   UNL     1     -18.057  -0.787  28.357  0.00  0.00    +0.000 C 
BRANCH   2   3
ATOM      3  C   UNL     1     -19.534  -0.858  28.763  0.00  0.00    +0.000 C 
BRANCH   3   4
ATOM      4  C   UNL     1     -19.734  -0.505  30.242  0.00  0.00    +0.000 C 
BRANCH   4   5
ATOM      5  C   UNL     1     -18.954  -1.451  31.161  0.00  0.00    +0.000 C 
BRANCH   5   6
ATOM      6  C   UNL     1     -18.566  -0.769  32.480  0.00  0.00    +0.000 C 
BRANCH   6   7
ATOM      7  C   UNL     1     -17.057  -0.847  32.733  0.00  0.00    +0.000 C 
BRANCH   7   9
ATOM      8  C   UNL     1     -17.311   1.646  32.440  0.00  0.00    +0.000 C 
ATOM      9  C   UNL     1     -16.457   0.530  33.024  0.00  0.00    +0.000 C 
ENDBRANCH   7   9
ENDBRANCH   6   7
ENDBRANCH   5   6
ENDBRANCH   4   5
ENDBRANCH   3   4
ENDBRANCH   2   3
ENDBRANCH   1   2
BRANCH   1  10
ATOM     10  C   UNL     1     -15.907   0.298  29.162  0.00  0.00    +0.000 C 
BRANCH  10  11
ATOM     11  C   UNL     1     -15.187  -0.411  28.008  0.00  0.00    +0.000 C 
BRANCH  11  12
ATOM     12  C   UNL     1     -13.760  -0.804  28.399  0.00  0.00    +0.000 C 
BRANCH  12  13
ATOM     13  C   UNL     1     -13.548  -0.786  29.913  0.00  0.00    +0.000 C 
BRANCH  13  14
ATOM     14  C   UNL     1     -12.381  -1.654  30.306  0.00  0.00    +0.000 C 
ATOM     15  O   UNL     1     -11.321  -1.776  29.714  0.00  0.00    +0.000 OA
BRANCH  14  16
ATOM     16  O   UNL     1     -12.627  -2.376  31.416  0.00  0.00    +0.000 OA
ATOM     17  H   UNL     1     -13.400  -2.927  31.173  0.00  0.00    +0.000 HD
ENDBRANCH  14  16
ENDBRANCH  13  14
ENDBRANCH  12  13
ENDBRANCH  11  12
ENDBRANCH  10  11
ENDBRANCH   1  10
TORSDOF 13
ENDMDL
MODEL 8
REMARK VINA RESULT:    -4.207      3.842      7.241
REMARK INTER + INTRA:          -8.137
REMARK INTER:                  -6.831
REMARK INTRA:                  -1.306
REMARK UNBOUND:                -0.857
REMARK  Name = C:\Users\sofiya chavarekar\OneDrive\Assignment- Module 1\PROJECT(AI-based drug target identification for SDH-related rare disorders)\Data\Ligands\PDB\Ligand_0086.pdb
REMARK  14 active torsions:
REMARK  status: ('A' for Active; 'I' for Inactive)
REMARK    1  A    between atoms: C_1  and  C_2
REMARK    2  A    between atoms: C_2  and  C_3
REMARK    3  A    between atoms: C_3  and  C_4
REMARK    4  A    between atoms: C_4  and  C_5
REMARK    5  A    between atoms: C_5  and  C_6
REMARK    6  A    between atoms: C_6  and  C_7
REMARK    7  A    between atoms: C_7  and  C_8
REMARK    8  A    between atoms: C_8  and  C_9
REMARK    9  A    between atoms: C_9  and  C_10
REMARK   10  A    between atoms: C_10  and  C_11
REMARK   11  A    between atoms: C_11  and  C_12
REMARK   12  A    between atoms: C_12  and  C_13
REMARK   13  A    between atoms: C_13  and  C_14
REMARK   14  A    between atoms: C_14  and  O_16
REMARK                            x       y       z     vdW  Elec       q    Type
REMARK                         _______ _______ _______ _____ _____    ______ ____
ROOT
ATOM      1  C   UNL     1     -17.160   1.234  29.060  0.00  0.00    +0.000 C 
ENDROOT
BRANCH   1   2
ATOM      2  C   UNL     1     -17.237  -0.127  29.761  0.00  0.00    +0.000 C 
BRANCH   2   3
ATOM      3  C   UNL     1     -17.058   0.009  31.278  0.00  0.00    +0.000 C 
BRANCH   3   4
ATOM      4  C   UNL     1     -17.743  -1.135  32.035  0.00  0.00    +0.000 C 
BRANCH   4   5
ATOM      5  C   UNL     1     -19.164  -0.758  32.465  0.00  0.00    +0.000 C 
BRANCH   5   6
ATOM      6  C   UNL     1     -20.214  -1.677  31.826  0.00  0.00    +0.000 C 
BRANCH   6   7
ATOM      7  C   UNL     1     -21.280  -0.878  31.072  0.00  0.00    +0.000 C 
BRANCH   7   9
ATOM      8  C   UNL     1     -20.420  -1.929  28.946  0.00  0.00    +0.000 C 
ATOM      9  C   UNL     1     -20.890  -0.644  29.612  0.00  0.00    +0.000 C 
ENDBRANCH   7   9
ENDBRANCH   6   7
ENDBRANCH   5   6
ENDBRANCH   4   5
ENDBRANCH   3   4
ENDBRANCH   2   3
ENDBRANCH   1   2
BRANCH   1  10
ATOM     10  C   UNL     1     -15.723   1.587  28.659  0.00  0.00    +0.000 C 
BRANCH  10  11
ATOM     11  C   UNL     1     -14.922   0.339  28.269  0.00  0.00    +0.000 C 
BRANCH  11  12
ATOM     12  C   UNL     1     -13.683   0.174  29.153  0.00  0.00    +0.000 C 
BRANCH  12  13
ATOM     13  C   UNL     1     -13.749  -1.087  30.016  0.00  0.00    +0.000 C 
BRANCH  13  14
ATOM     14  C   UNL     1     -12.373  -1.652  30.254  0.00  0.00    +0.000 C 
ATOM     15  O   UNL     1     -11.399  -1.553  29.526  0.00  0.00    +0.000 OA
BRANCH  14  16
ATOM     16  O   UNL     1     -12.301  -2.369  31.392  0.00  0.00    +0.000 OA
ATOM     17  H   UNL     1     -12.212  -1.690  32.093  0.00  0.00    +0.000 HD
ENDBRANCH  14  16
ENDBRANCH  13  14
ENDBRANCH  12  13
ENDBRANCH  11  12
ENDBRANCH  10  11
ENDBRANCH   1  10
TORSDOF 13
ENDMDL
MODEL 9
REMARK VINA RESULT:    -4.136      4.210      6.364
REMARK INTER + INTRA:          -8.015
REMARK INTER:                  -6.021
REMARK INTRA:                  -1.993
REMARK UNBOUND:                -0.857
REMARK  Name = C:\Users\sofiya chavarekar\OneDrive\Assignment- Module 1\PROJECT(AI-based drug target identification for SDH-related rare disorders)\Data\Ligands\PDB\Ligand_0086.pdb
REMARK  14 active torsions:
REMARK  status: ('A' for Active; 'I' for Inactive)
REMARK    1  A    between atoms: C_1  and  C_2
REMARK    2  A    between atoms: C_2  and  C_3
REMARK    3  A    between atoms: C_3  and  C_4
REMARK    4  A    between atoms: C_4  and  C_5
REMARK    5  A    between atoms: C_5  and  C_6
REMARK    6  A    between atoms: C_6  and  C_7
REMARK    7  A    between atoms: C_7  and  C_8
REMARK    8  A    between atoms: C_8  and  C_9
REMARK    9  A    between atoms: C_9  and  C_10
REMARK   10  A    between atoms: C_10  and  C_11
REMARK   11  A    between atoms: C_11  and  C_12
REMARK   12  A    between atoms: C_12  and  C_13
REMARK   13  A    between atoms: C_13  and  C_14
REMARK   14  A    between atoms: C_14  and  O_16
REMARK                            x       y       z     vdW  Elec       q    Type
REMARK                         _______ _______ _______ _____ _____    ______ ____
ROOT
ATOM      1  C   UNL     1     -17.109   0.087  30.884  0.00  0.00    +0.000 C 
ENDROOT
BRANCH   1   2
ATOM      2  C   UNL     1     -18.495   0.280  31.510  0.00  0.00    +0.000 C 
BRANCH   2   3
ATOM      3  C   UNL     1     -19.419  -0.908  31.213  0.00  0.00    +0.000 C 
BRANCH   3   4
ATOM      4  C   UNL     1     -18.736  -1.947  30.316  0.00  0.00    +0.000 C 
BRANCH   4   5
ATOM      5  C   UNL     1     -19.344  -1.968  28.910  0.00  0.00    +0.000 C 
BRANCH   5   6
ATOM      6  C   UNL     1     -18.309  -1.597  27.839  0.00  0.00    +0.000 C 
BRANCH   6   7
ATOM      7  C   UNL     1     -18.790  -0.430  26.971  0.00  0.00    +0.000 C 
BRANCH   7   9
ATOM      8  C   UNL     1     -18.729   2.061  27.366  0.00  0.00    +0.000 C 
ATOM      9  C   UNL     1     -19.315   0.731  27.818  0.00  0.00    +0.000 C 
ENDBRANCH   7   9
ENDBRANCH   6   7
ENDBRANCH   5   6
ENDBRANCH   4   5
ENDBRANCH   3   4
ENDBRANCH   2   3
ENDBRANCH   1   2
BRANCH   1  10
ATOM     10  C   UNL     1     -16.570   1.389  30.281  0.00  0.00    +0.000 C 
BRANCH  10  11
ATOM     11  C   UNL     1     -15.530   1.118  29.188  0.00  0.00    +0.000 C 
BRANCH  11  12
ATOM     12  C   UNL     1     -15.102  -0.352  29.177  0.00  0.00    +0.000 C 
BRANCH  12  13
ATOM     13  C   UNL     1     -13.582  -0.514  29.126  0.00  0.00    +0.000 C 
BRANCH  13  14
ATOM     14  C   UNL     1     -13.079  -1.281  30.321  0.00  0.00    +0.000 C 
ATOM     15  O   UNL     1     -11.923  -1.586  30.568  0.00  0.00    +0.000 OA
BRANCH  14  16
ATOM     16  O   UNL     1     -14.076  -1.677  31.135  0.00  0.00    +0.000 OA
ATOM     17  H   UNL     1     -13.622  -2.210  31.821  0.00  0.00    +0.000 HD
ENDBRANCH  14  16
ENDBRANCH  13  14
ENDBRANCH  12  13
ENDBRANCH  11  12
ENDBRANCH  10  11
ENDBRANCH   1  10
TORSDOF 13
ENDMDL
