MODEL 1
REMARK VINA RESULT:    -5.904      0.000      0.000
REMARK INTER + INTRA:          -5.904
REMARK INTER:                  -5.904
REMARK INTRA:                   0.000
REMARK UNBOUND:                 0.000
REMARK  Name = C:\Users\sofiya chavarekar\OneDrive\Assignment- Module 1\PROJECT(AI-based drug target identification for SDH-related rare disorders)\Data\Ligands\PDB\Ligand_0020.pdb
REMARK  0 active torsions:
REMARK  status: ('A' for Active; 'I' for Inactive)
REMARK                            x       y       z     vdW  Elec       q    Type
REMARK                         _______ _______ _______ _____ _____    ______ ____
ROOT
ATOM      1  C   UNL     1     -10.791   5.438  25.713  0.00  0.00    +0.000 A 
ATOM      2  C   UNL     1     -11.255   6.675  25.285  0.00  0.00    +0.000 A 
ATOM      3  C   UNL     1     -12.579   7.047  25.534  0.00  0.00    +0.000 A 
ATOM      4  C   UNL     1     -13.471   6.193  26.218  0.00  0.00    +0.000 A 
ATOM      5  C   UNL     1     -12.981   4.936  26.649  0.00  0.00    +0.000 A 
ATOM      6  C   UNL     1     -11.648   4.573  26.392  0.00  0.00    +0.000 A 
ATOM      7  C   UNL     1     -13.834   4.066  27.329  0.00  0.00    +0.000 A 
ATOM      8  C   UNL     1     -15.154   4.434  27.580  0.00  0.00    +0.000 A 
ATOM      9  C   UNL     1     -15.654   5.657  27.168  0.00  0.00    +0.000 A 
ATOM     10  N   UNL     1     -16.942   5.944  27.448  0.00  0.00    +0.000 NA
ATOM     11  C   UNL     1     -17.398   7.141  27.033  0.00  0.00    +0.000 A 
ATOM     12  C   UNL     1     -16.598   8.034  26.356  0.00  0.00    +0.000 A 
ATOM     13  N   UNL     1     -15.307   7.765  26.069  0.00  0.00    +0.000 NA
ATOM     14  C   UNL     1     -14.811   6.564  26.473  0.00  0.00    +0.000 A 
ENDROOT
TORSDOF 0
ENDMDL
MODEL 2
REMARK VINA RESULT:    -5.645      1.405      2.762
REMARK INTER + INTRA:          -5.645
REMARK INTER:                  -5.645
REMARK INTRA:                   0.000
REMARK UNBOUND:                 0.000
REMARK  Name = C:\Users\sofiya chavarekar\OneDrive\Assignment- Module 1\PROJECT(AI-based drug target identification for SDH-related rare disorders)\Data\Ligands\PDB\Ligand_0020.pdb
REMARK  0 active torsions:
REMARK  status: ('A' for Active; 'I' for Inactive)
REMARK                            x       y       z     vdW  Elec       q    Type
REMARK                         _______ _______ _______ _____ _____    ______ ____
ROOT
ATOM      1  C   UNL     1     -10.814   6.313  24.993  0.00  0.00    +0.000 A 
ATOM      2  C   UNL     1     -10.786   5.195  25.817  0.00  0.00    +0.000 A 
ATOM      3  C   UNL     1     -11.867   4.923  26.658  0.00  0.00    +0.000 A 
ATOM      4  C   UNL     1     -13.004   5.759  26.697  0.00  0.00    +0.000 A 
ATOM      5  C   UNL     1     -13.017   6.894  25.850  0.00  0.00    +0.000 A 
ATOM      6  C   UNL     1     -11.923   7.159  25.009  0.00  0.00    +0.000 A 
ATOM      7  C   UNL     1     -14.124   7.743  25.861  0.00  0.00    +0.000 A 
ATOM      8  C   UNL     1     -15.204   7.474  26.698  0.00  0.00    +0.000 A 
ATOM      9  C   UNL     1     -15.213   6.371  27.535  0.00  0.00    +0.000 A 
ATOM     10  N   UNL     1     -16.294   6.175  28.316  0.00  0.00    +0.000 NA
ATOM     11  C   UNL     1     -16.272   5.093  29.118  0.00  0.00    +0.000 A 
ATOM     12  C   UNL     1     -15.203   4.226  29.146  0.00  0.00    +0.000 A 
ATOM     13  N   UNL     1     -14.113   4.406  28.371  0.00  0.00    +0.000 NA
ATOM     14  C   UNL     1     -14.100   5.488  27.547  0.00  0.00    +0.000 A 
ENDROOT
TORSDOF 0
ENDMDL
MODEL 3
REMARK VINA RESULT:    -5.578      1.635      3.252
REMARK INTER + INTRA:          -5.578
REMARK INTER:                  -5.578
REMARK INTRA:                   0.000
REMARK UNBOUND:                 0.000
REMARK  Name = C:\Users\sofiya chavarekar\OneDrive\Assignment- Module 1\PROJECT(AI-based drug target identification for SDH-related rare disorders)\Data\Ligands\PDB\Ligand_0020.pdb
REMARK  0 active torsions:
REMARK  status: ('A' for Active; 'I' for Inactive)
REMARK                            x       y       z     vdW  Elec       q    Type
REMARK                         _______ _______ _______ _____ _____    ______ ____
ROOT
ATOM      1  C   UNL     1     -11.239   6.743  25.086  0.00  0.00    +0.000 A 
ATOM      2  C   UNL     1     -10.757   5.541  25.589  0.00  0.00    +0.000 A 
ATOM      3  C   UNL     1     -11.612   4.687  26.290  0.00  0.00    +0.000 A 
ATOM      4  C   UNL     1     -12.968   5.010  26.505  0.00  0.00    +0.000 A 
ATOM      5  C   UNL     1     -13.444   6.239  25.985  0.00  0.00    +0.000 A 
ATOM      6  C   UNL     1     -12.575   7.090  25.282  0.00  0.00    +0.000 A 
ATOM      7  C   UNL     1     -14.780   6.591  26.177  0.00  0.00    +0.000 A 
ATOM      8  C   UNL     1     -15.635   5.741  26.875  0.00  0.00    +0.000 A 
ATOM      9  C   UNL     1     -15.192   4.536  27.393  0.00  0.00    +0.000 A 
ATOM     10  N   UNL     1     -16.078   3.765  28.056  0.00  0.00    +0.000 NA
ATOM     11  C   UNL     1     -15.615   2.600  28.547  0.00  0.00    +0.000 A 
ATOM     12  C   UNL     1     -14.305   2.207  28.386  0.00  0.00    +0.000 A 
ATOM     13  N   UNL     1     -13.406   2.965  27.725  0.00  0.00    +0.000 NA
ATOM     14  C   UNL     1     -13.837   4.150  27.214  0.00  0.00    +0.000 A 
ENDROOT
TORSDOF 0
ENDMDL
MODEL 4
REMARK VINA RESULT:    -5.272      1.445      3.289
REMARK INTER + INTRA:          -5.272
REMARK INTER:                  -5.272
REMARK INTRA:                   0.000
REMARK UNBOUND:                 0.000
REMARK  Name = C:\Users\sofiya chavarekar\OneDrive\Assignment- Module 1\PROJECT(AI-based drug target identification for SDH-related rare disorders)\Data\Ligands\PDB\Ligand_0020.pdb
REMARK  0 active torsions:
REMARK  status: ('A' for Active; 'I' for Inactive)
REMARK                            x       y       z     vdW  Elec       q    Type
REMARK                         _______ _______ _______ _____ _____    ______ ____
ROOT
ATOM      1  C   UNL     1     -13.962   2.950  28.139  0.00  0.00    +0.000 A 
ATOM      2  C   UNL     1     -15.042   3.582  28.743  0.00  0.00    +0.000 A 
ATOM      3  C   UNL     1     -15.317   4.920  28.452  0.00  0.00    +0.000 A 
ATOM      4  C   UNL     1     -14.523   5.661  27.552  0.00  0.00    +0.000 A 
ATOM      5  C   UNL     1     -13.426   5.002  26.943  0.00  0.00    +0.000 A 
ATOM      6  C   UNL     1     -13.158   3.656  27.244  0.00  0.00    +0.000 A 
ATOM      7  C   UNL     1     -12.619   5.702  26.047  0.00  0.00    +0.000 A 
ATOM      8  C   UNL     1     -12.892   7.036  25.754  0.00  0.00    +0.000 A 
ATOM      9  C   UNL     1     -13.958   7.701  26.337  0.00  0.00    +0.000 A 
ATOM     10  N   UNL     1     -14.159   8.992  26.004  0.00  0.00    +0.000 NA
ATOM     11  C   UNL     1     -15.204   9.610  26.589  0.00  0.00    +0.000 A 
ATOM     12  C   UNL     1     -16.029   8.964  27.481  0.00  0.00    +0.000 A 
ATOM     13  N   UNL     1     -15.843   7.672  27.825  0.00  0.00    +0.000 NA
ATOM     14  C   UNL     1     -14.797   7.015  27.254  0.00  0.00    +0.000 A 
ENDROOT
TORSDOF 0
ENDMDL
MODEL 5
REMARK VINA RESULT:    -5.201      1.699      4.099
REMARK INTER + INTRA:          -5.201
REMARK INTER:                  -5.201
REMARK INTRA:                   0.000
REMARK UNBOUND:                 0.000
REMARK  Name = C:\Users\sofiya chavarekar\OneDrive\Assignment- Module 1\PROJECT(AI-based drug target identification for SDH-related rare disorders)\Data\Ligands\PDB\Ligand_0020.pdb
REMARK  0 active torsions:
REMARK  status: ('A' for Active; 'I' for Inactive)
REMARK                            x       y       z     vdW  Elec       q    Type
REMARK                         _______ _______ _______ _____ _____    ______ ____
ROOT
ATOM      1  C   UNL     1     -15.480   9.255  26.163  0.00  0.00    +0.000 A 
ATOM      2  C   UNL     1     -16.583   8.489  26.520  0.00  0.00    +0.000 A 
ATOM      3  C   UNL     1     -16.423   7.133  26.814  0.00  0.00    +0.000 A 
ATOM      4  C   UNL     1     -15.159   6.508  26.760  0.00  0.00    +0.000 A 
ATOM      5  C   UNL     1     -14.045   7.304  26.395  0.00  0.00    +0.000 A 
ATOM      6  C   UNL     1     -14.218   8.666  26.101  0.00  0.00    +0.000 A 
ATOM      7  C   UNL     1     -12.779   6.720  26.332  0.00  0.00    +0.000 A 
ATOM      8  C   UNL     1     -12.616   5.368  26.626  0.00  0.00    +0.000 A 
ATOM      9  C   UNL     1     -13.690   4.572  26.984  0.00  0.00    +0.000 A 
ATOM     10  N   UNL     1     -13.455   3.272  27.255  0.00  0.00    +0.000 NA
ATOM     11  C   UNL     1     -14.521   2.524  27.600  0.00  0.00    +0.000 A 
ATOM     12  C   UNL     1     -15.790   3.052  27.675  0.00  0.00    +0.000 A 
ATOM     13  N   UNL     1     -16.044   4.350  27.408  0.00  0.00    +0.000 NA
ATOM     14  C   UNL     1     -14.991   5.137  27.056  0.00  0.00    +0.000 A 
ENDROOT
TORSDOF 0
ENDMDL
MODEL 6
REMARK VINA RESULT:    -5.173      1.484      3.241
REMARK INTER + INTRA:          -5.173
REMARK INTER:                  -5.173
REMARK INTRA:                   0.000
REMARK UNBOUND:                 0.000
REMARK  Name = C:\Users\sofiya chavarekar\OneDrive\Assignment- Module 1\PROJECT(AI-based drug target identification for SDH-related rare disorders)\Data\Ligands\PDB\Ligand_0020.pdb
REMARK  0 active torsions:
REMARK  status: ('A' for Active; 'I' for Inactive)
REMARK                            x       y       z     vdW  Elec       q    Type
REMARK                         _______ _______ _______ _____ _____    ______ ____
ROOT
ATOM      1  C   UNL     1      -9.307   3.538  25.664  0.00  0.00    +0.000 A 
ATOM      2  C   UNL     1     -10.125   2.808  26.518  0.00  0.00    +0.000 A 
ATOM      3  C   UNL     1     -11.340   3.348  26.947  0.00  0.00    +0.000 A 
ATOM      4  C   UNL     1     -11.768   4.629  26.536  0.00  0.00    +0.000 A 
ATOM      5  C   UNL     1     -10.922   5.359  25.665  0.00  0.00    +0.000 A 
ATOM      6  C   UNL     1      -9.702   4.806  25.240  0.00  0.00    +0.000 A 
ATOM      7  C   UNL     1     -11.313   6.627  25.236  0.00  0.00    +0.000 A 
ATOM      8  C   UNL     1     -12.524   7.168  25.662  0.00  0.00    +0.000 A 
ATOM      9  C   UNL     1     -13.367   6.473  26.513  0.00  0.00    +0.000 A 
ATOM     10  N   UNL     1     -14.523   7.060  26.882  0.00  0.00    +0.000 NA
ATOM     11  C   UNL     1     -15.320   6.358  27.710  0.00  0.00    +0.000 A 
ATOM     12  C   UNL     1     -14.979   5.103  28.163  0.00  0.00    +0.000 A 
ATOM     13  N   UNL     1     -13.827   4.500  27.804  0.00  0.00    +0.000 NA
ATOM     14  C   UNL     1     -12.996   5.179  26.967  0.00  0.00    +0.000 A 
ENDROOT
TORSDOF 0
ENDMDL
MODEL 7
REMARK VINA RESULT:    -5.040      8.628      9.986
REMARK INTER + INTRA:          -5.040
REMARK INTER:                  -5.040
REMARK INTRA:                   0.000
REMARK UNBOUND:                 0.000
REMARK  Name = C:\Users\sofiya chavarekar\OneDrive\Assignment- Module 1\PROJECT(AI-based drug target identification for SDH-related rare disorders)\Data\Ligands\PDB\Ligand_0020.pdb
REMARK  0 active torsions:
REMARK  status: ('A' for Active; 'I' for Inactive)
REMARK                            x       y       z     vdW  Elec       q    Type
REMARK                         _______ _______ _______ _____ _____    ______ ____
ROOT
ATOM      1  C   UNL     1     -20.028  -1.373  27.653  0.00  0.00    +0.000 A 
ATOM      2  C   UNL     1     -18.670  -1.095  27.559  0.00  0.00    +0.000 A 
ATOM      3  C   UNL     1     -17.912  -0.925  28.720  0.00  0.00    +0.000 A 
ATOM      4  C   UNL     1     -18.490  -1.030  30.003  0.00  0.00    +0.000 A 
ATOM      5  C   UNL     1     -19.876  -1.315  30.081  0.00  0.00    +0.000 A 
ATOM      6  C   UNL     1     -20.628  -1.483  28.907  0.00  0.00    +0.000 A 
ATOM      7  C   UNL     1     -20.481  -1.427  31.333  0.00  0.00    +0.000 A 
ATOM      8  C   UNL     1     -19.728  -1.260  32.493  0.00  0.00    +0.000 A 
ATOM      9  C   UNL     1     -18.372  -0.981  32.440  0.00  0.00    +0.000 A 
ATOM     10  N   UNL     1     -17.709  -0.833  33.605  0.00  0.00    +0.000 NA
ATOM     11  C   UNL     1     -16.392  -0.561  33.519  0.00  0.00    +0.000 A 
ATOM     12  C   UNL     1     -15.748  -0.438  32.309  0.00  0.00    +0.000 A 
ATOM     13  N   UNL     1     -16.396  -0.584  31.134  0.00  0.00    +0.000 NA
ATOM     14  C   UNL     1     -17.728  -0.860  31.181  0.00  0.00    +0.000 A 
ENDROOT
TORSDOF 0
ENDMDL
MODEL 8
REMARK VINA RESULT:    -4.982      1.887      4.621
REMARK INTER + INTRA:          -4.982
REMARK INTER:                  -4.982
REMARK INTRA:                   0.000
REMARK UNBOUND:                 0.000
REMARK  Name = C:\Users\sofiya chavarekar\OneDrive\Assignment- Module 1\PROJECT(AI-based drug target identification for SDH-related rare disorders)\Data\Ligands\PDB\Ligand_0020.pdb
REMARK  0 active torsions:
REMARK  status: ('A' for Active; 'I' for Inactive)
REMARK                            x       y       z     vdW  Elec       q    Type
REMARK                         _______ _______ _______ _____ _____    ______ ____
ROOT
ATOM      1  C   UNL     1     -16.087   2.954  28.364  0.00  0.00    +0.000 A 
ATOM      2  C   UNL     1     -14.809   2.416  28.270  0.00  0.00    +0.000 A 
ATOM      3  C   UNL     1     -13.795   3.140  27.638  0.00  0.00    +0.000 A 
ATOM      4  C   UNL     1     -14.030   4.417  27.086  0.00  0.00    +0.000 A 
ATOM      5  C   UNL     1     -15.338   4.950  27.191  0.00  0.00    +0.000 A 
ATOM      6  C   UNL     1     -16.351   4.213  27.828  0.00  0.00    +0.000 A 
ATOM      7  C   UNL     1     -15.608   6.211  26.658  0.00  0.00    +0.000 A 
ATOM      8  C   UNL     1     -14.598   6.935  26.028  0.00  0.00    +0.000 A 
ATOM      9  C   UNL     1     -13.312   6.433  25.913  0.00  0.00    +0.000 A 
ATOM     10  N   UNL     1     -12.387   7.192  25.291  0.00  0.00    +0.000 NA
ATOM     11  C   UNL     1     -11.147   6.675  25.196  0.00  0.00    +0.000 A 
ATOM     12  C   UNL     1     -10.831   5.436  25.704  0.00  0.00    +0.000 A 
ATOM     13  N   UNL     1     -11.743   4.663  26.330  0.00  0.00    +0.000 NA
ATOM     14  C   UNL     1     -13.007   5.153  26.446  0.00  0.00    +0.000 A 
ENDROOT
TORSDOF 0
ENDMDL
MODEL 9
REMARK VINA RESULT:    -4.954      9.163     10.432
REMARK INTER + INTRA:          -4.954
REMARK INTER:                  -4.954
REMARK INTRA:                   0.000
REMARK UNBOUND:                 0.000
REMARK  Name = C:\Users\sofiya chavarekar\OneDrive\Assignment- Module 1\PROJECT(AI-based drug target identification for SDH-related rare disorders)\Data\Ligands\PDB\Ligand_0020.pdb
REMARK  0 active torsions:
REMARK  status: ('A' for Active; 'I' for Inactive)
REMARK                            x       y       z     vdW  Elec       q    Type
REMARK                         _______ _______ _______ _____ _____    ______ ____
ROOT
ATOM      1  C   UNL     1     -21.375  -1.664  19.468  0.00  0.00    +0.000 A 
ATOM      2  C   UNL     1     -21.284  -0.335  19.864  0.00  0.00    +0.000 A 
ATOM      3  C   UNL     1     -20.470   0.015  20.944  0.00  0.00    +0.000 A 
ATOM      4  C   UNL     1     -19.725  -0.951  21.654  0.00  0.00    +0.000 A 
ATOM      5  C   UNL     1     -19.829  -2.301  21.237  0.00  0.00    +0.000 A 
ATOM      6  C   UNL     1     -20.652  -2.641  20.150  0.00  0.00    +0.000 A 
ATOM      7  C   UNL     1     -19.107  -3.283  21.914  0.00  0.00    +0.000 A 
ATOM      8  C   UNL     1     -18.293  -2.936  22.990  0.00  0.00    +0.000 A 
ATOM      9  C   UNL     1     -18.177  -1.624  23.416  0.00  0.00    +0.000 A 
ATOM     10  N   UNL     1     -17.369  -1.365  24.464  0.00  0.00    +0.000 NA
ATOM     11  C   UNL     1     -17.278  -0.078  24.853  0.00  0.00    +0.000 A 
ATOM     12  C   UNL     1     -17.972   0.928  24.219  0.00  0.00    +0.000 A 
ATOM     13  N   UNL     1     -18.783   0.687  23.168  0.00  0.00    +0.000 NA
ATOM     14  C   UNL     1     -18.900  -0.601  22.746  0.00  0.00    +0.000 A 
ENDROOT
TORSDOF 0
ENDMDL
