MODEL 1
REMARK VINA RESULT:    -4.309      0.000      0.000
REMARK INTER + INTRA:          -6.033
REMARK INTER:                  -5.821
REMARK INTRA:                  -0.212
REMARK UNBOUND:                -0.212
REMARK  Name = C:\Users\sofiya chavarekar\OneDrive\Assignment- Module 1\PROJECT(AI-based drug target identification for SDH-related rare disorders)\Data\Ligands\PDB\Ligand_0091.pdb
REMARK  8 active torsions:
REMARK  status: ('A' for Active; 'I' for Inactive)
REMARK    1  A    between atoms: C_1  and  C_2
REMARK    2  A    between atoms: C_2  and  C_3
REMARK    3  A    between atoms: C_3  and  C_4
REMARK    4  A    between atoms: C_4  and  C_5
REMARK    5  A    between atoms: C_5  and  C_6
REMARK    6  A    between atoms: C_6  and  O_8
REMARK    7  A    between atoms: O_8  and  C_9
REMARK    8  A    between atoms: C_9  and  C_10
REMARK                            x       y       z     vdW  Elec       q    Type
REMARK                         _______ _______ _______ _____ _____    ______ ____
ROOT
ATOM      1  C   UNL     1     -13.414   6.592  25.339  0.00  0.00    +0.000 C 
ENDROOT
BRANCH   1   2
ATOM      2  C   UNL     1     -13.968   6.996  26.692  0.00  0.00    +0.000 C 
ATOM      3  O   UNL     1     -14.334   6.223  27.566  0.00  0.00    +0.000 OA
BRANCH   2   4
ATOM      4  O   UNL     1     -13.996   8.358  26.794  0.00  0.00    +0.000 OA
BRANCH   4   5
ATOM      5  C   UNL     1     -15.263   8.994  26.553  0.00  0.00    +0.000 C 
ATOM      6  C   UNL     1     -15.096  10.232  25.692  0.00  0.00    +0.000 C 
ENDBRANCH   4   5
ENDBRANCH   2   4
ENDBRANCH   1   2
BRANCH   1   7
ATOM      7  C   UNL     1     -11.878   6.646  25.292  0.00  0.00    +0.000 C 
BRANCH   7   8
ATOM      8  C   UNL     1     -11.158   5.577  26.130  0.00  0.00    +0.000 C 
BRANCH   8  10
ATOM      9  C   UNL     1      -9.621   3.567  26.109  0.00  0.00    +0.000 C 
ATOM     10  C   UNL     1     -10.037   4.844  25.389  0.00  0.00    +0.000 C 
ENDBRANCH   8  10
ENDBRANCH   7   8
ENDBRANCH   1   7
TORSDOF 6
ENDMDL
MODEL 2
REMARK VINA RESULT:    -4.167      1.326      2.494
REMARK INTER + INTRA:          -5.840
REMARK INTER:                  -5.501
REMARK INTRA:                  -0.340
REMARK UNBOUND:                -0.212
REMARK  Name = C:\Users\sofiya chavarekar\OneDrive\Assignment- Module 1\PROJECT(AI-based drug target identification for SDH-related rare disorders)\Data\Ligands\PDB\Ligand_0091.pdb
REMARK  8 active torsions:
REMARK  status: ('A' for Active; 'I' for Inactive)
REMARK    1  A    between atoms: C_1  and  C_2
REMARK    2  A    between atoms: C_2  and  C_3
REMARK    3  A    between atoms: C_3  and  C_4
REMARK    4  A    between atoms: C_4  and  C_5
REMARK    5  A    between atoms: C_5  and  C_6
REMARK    6  A    between atoms: C_6  and  O_8
REMARK    7  A    between atoms: O_8  and  C_9
REMARK    8  A    between atoms: C_9  and  C_10
REMARK                            x       y       z     vdW  Elec       q    Type
REMARK                         _______ _______ _______ _____ _____    ______ ____
ROOT
ATOM      1  C   UNL     1     -13.609   6.545  25.321  0.00  0.00    +0.000 C 
ENDROOT
BRANCH   1   2
ATOM      2  C   UNL     1     -14.462   7.097  26.448  0.00  0.00    +0.000 C 
ATOM      3  O   UNL     1     -14.340   8.206  26.949  0.00  0.00    +0.000 OA
BRANCH   2   4
ATOM      4  O   UNL     1     -15.394   6.170  26.821  0.00  0.00    +0.000 OA
BRANCH   4   5
ATOM      5  C   UNL     1     -15.441   5.835  28.219  0.00  0.00    +0.000 C 
ATOM      6  C   UNL     1     -14.324   4.874  28.585  0.00  0.00    +0.000 C 
ENDBRANCH   4   5
ENDBRANCH   2   4
ENDBRANCH   1   2
BRANCH   1   7
ATOM      7  C   UNL     1     -12.103   6.672  25.607  0.00  0.00    +0.000 C 
BRANCH   7   8
ATOM      8  C   UNL     1     -11.442   5.420  26.205  0.00  0.00    +0.000 C 
BRANCH   8  10
ATOM      9  C   UNL     1      -9.619   3.671  26.054  0.00  0.00    +0.000 C 
ATOM     10  C   UNL     1     -10.171   4.970  25.480  0.00  0.00    +0.000 C 
ENDBRANCH   8  10
ENDBRANCH   7   8
ENDBRANCH   1   7
TORSDOF 6
ENDMDL
MODEL 3
REMARK VINA RESULT:    -3.824      2.695      4.408
REMARK INTER + INTRA:          -5.377
REMARK INTER:                  -5.143
REMARK INTRA:                  -0.234
REMARK UNBOUND:                -0.212
REMARK  Name = C:\Users\sofiya chavarekar\OneDrive\Assignment- Module 1\PROJECT(AI-based drug target identification for SDH-related rare disorders)\Data\Ligands\PDB\Ligand_0091.pdb
REMARK  8 active torsions:
REMARK  status: ('A' for Active; 'I' for Inactive)
REMARK    1  A    between atoms: C_1  and  C_2
REMARK    2  A    between atoms: C_2  and  C_3
REMARK    3  A    between atoms: C_3  and  C_4
REMARK    4  A    between atoms: C_4  and  C_5
REMARK    5  A    between atoms: C_5  and  C_6
REMARK    6  A    between atoms: C_6  and  O_8
REMARK    7  A    between atoms: O_8  and  C_9
REMARK    8  A    between atoms: C_9  and  C_10
REMARK                            x       y       z     vdW  Elec       q    Type
REMARK                         _______ _______ _______ _____ _____    ______ ____
ROOT
ATOM      1  C   UNL     1     -13.673   5.630  26.897  0.00  0.00    +0.000 C 
ENDROOT
BRANCH   1   2
ATOM      2  C   UNL     1     -14.174   4.228  26.605  0.00  0.00    +0.000 C 
ATOM      3  O   UNL     1     -15.161   3.954  25.937  0.00  0.00    +0.000 OA
BRANCH   2   4
ATOM      4  O   UNL     1     -13.354   3.309  27.198  0.00  0.00    +0.000 OA
BRANCH   4   5
ATOM      5  C   UNL     1     -13.989   2.335  28.045  0.00  0.00    +0.000 C 
ATOM      6  C   UNL     1     -12.977   1.339  28.581  0.00  0.00    +0.000 C 
ENDBRANCH   4   5
ENDBRANCH   2   4
ENDBRANCH   1   2
BRANCH   1   7
ATOM      7  C   UNL     1     -13.312   6.403  25.618  0.00  0.00    +0.000 C 
BRANCH   7   8
ATOM      8  C   UNL     1     -11.807   6.542  25.339  0.00  0.00    +0.000 C 
BRANCH   8  10
ATOM      9  C   UNL     1     -10.042   4.747  25.588  0.00  0.00    +0.000 C 
ATOM     10  C   UNL     1     -10.911   5.769  26.309  0.00  0.00    +0.000 C 
ENDBRANCH   8  10
ENDBRANCH   7   8
ENDBRANCH   1   7
TORSDOF 6
ENDMDL
MODEL 4
REMARK VINA RESULT:    -3.794      1.912      3.430
REMARK INTER + INTRA:          -5.336
REMARK INTER:                  -4.842
REMARK INTRA:                  -0.494
REMARK UNBOUND:                -0.212
REMARK  Name = C:\Users\sofiya chavarekar\OneDrive\Assignment- Module 1\PROJECT(AI-based drug target identification for SDH-related rare disorders)\Data\Ligands\PDB\Ligand_0091.pdb
REMARK  8 active torsions:
REMARK  status: ('A' for Active; 'I' for Inactive)
REMARK    1  A    between atoms: C_1  and  C_2
REMARK    2  A    between atoms: C_2  and  C_3
REMARK    3  A    between atoms: C_3  and  C_4
REMARK    4  A    between atoms: C_4  and  C_5
REMARK    5  A    between atoms: C_5  and  C_6
REMARK    6  A    between atoms: C_6  and  O_8
REMARK    7  A    between atoms: O_8  and  C_9
REMARK    8  A    between atoms: C_9  and  C_10
REMARK                            x       y       z     vdW  Elec       q    Type
REMARK                         _______ _______ _______ _____ _____    ______ ____
ROOT
ATOM      1  C   UNL     1     -15.049   7.024  26.443  0.00  0.00    +0.000 C 
ENDROOT
BRANCH   1   2
ATOM      2  C   UNL     1     -15.495   6.090  27.553  0.00  0.00    +0.000 C 
ATOM      3  O   UNL     1     -16.650   5.757  27.775  0.00  0.00    +0.000 OA
BRANCH   2   4
ATOM      4  O   UNL     1     -14.410   5.670  28.270  0.00  0.00    +0.000 OA
BRANCH   4   5
ATOM      5  C   UNL     1     -14.331   4.260  28.545  0.00  0.00    +0.000 C 
ATOM      6  C   UNL     1     -13.760   3.506  27.358  0.00  0.00    +0.000 C 
ENDBRANCH   4   5
ENDBRANCH   2   4
ENDBRANCH   1   2
BRANCH   1   7
ATOM      7  C   UNL     1     -13.527   7.241  26.434  0.00  0.00    +0.000 C 
BRANCH   7   8
ATOM      8  C   UNL     1     -12.781   6.602  25.252  0.00  0.00    +0.000 C 
BRANCH   8  10
ATOM      9  C   UNL     1     -10.784   5.248  26.018  0.00  0.00    +0.000 C 
ATOM     10  C   UNL     1     -11.259   6.564  25.413  0.00  0.00    +0.000 C 
ENDBRANCH   8  10
ENDBRANCH   7   8
ENDBRANCH   1   7
TORSDOF 6
ENDMDL
MODEL 5
REMARK VINA RESULT:    -3.772      1.838      2.449
REMARK INTER + INTRA:          -5.307
REMARK INTER:                  -5.113
REMARK INTRA:                  -0.194
REMARK UNBOUND:                -0.212
REMARK  Name = C:\Users\sofiya chavarekar\OneDrive\Assignment- Module 1\PROJECT(AI-based drug target identification for SDH-related rare disorders)\Data\Ligands\PDB\Ligand_0091.pdb
REMARK  8 active torsions:
REMARK  status: ('A' for Active; 'I' for Inactive)
REMARK    1  A    between atoms: C_1  and  C_2
REMARK    2  A    between atoms: C_2  and  C_3
REMARK    3  A    between atoms: C_3  and  C_4
REMARK    4  A    between atoms: C_4  and  C_5
REMARK    5  A    between atoms: C_5  and  C_6
REMARK    6  A    between atoms: C_6  and  O_8
REMARK    7  A    between atoms: O_8  and  C_9
REMARK    8  A    between atoms: C_9  and  C_10
REMARK                            x       y       z     vdW  Elec       q    Type
REMARK                         _______ _______ _______ _____ _____    ______ ____
ROOT
ATOM      1  C   UNL     1     -11.993   5.116  26.492  0.00  0.00    +0.000 C 
ENDROOT
BRANCH   1   2
ATOM      2  C   UNL     1     -12.890   6.310  26.760  0.00  0.00    +0.000 C 
ATOM      3  O   UNL     1     -12.871   7.363  26.139  0.00  0.00    +0.000 OA
BRANCH   2   4
ATOM      4  O   UNL     1     -13.731   6.034  27.802  0.00  0.00    +0.000 OA
BRANCH   4   5
ATOM      5  C   UNL     1     -15.104   5.770  27.464  0.00  0.00    +0.000 C 
ATOM      6  C   UNL     1     -15.991   6.943  27.836  0.00  0.00    +0.000 C 
ENDBRANCH   4   5
ENDBRANCH   2   4
ENDBRANCH   1   2
BRANCH   1   7
ATOM      7  C   UNL     1     -10.724   5.498  25.713  0.00  0.00    +0.000 C 
BRANCH   7   8
ATOM      8  C   UNL     1      -9.660   4.393  25.610  0.00  0.00    +0.000 C 
BRANCH   8  10
ATOM      9  C   UNL     1      -8.883   2.528  27.134  0.00  0.00    +0.000 C 
ATOM     10  C   UNL     1     -10.038   3.087  26.312  0.00  0.00    +0.000 C 
ENDBRANCH   8  10
ENDBRANCH   7   8
ENDBRANCH   1   7
TORSDOF 6
ENDMDL
MODEL 6
REMARK VINA RESULT:    -3.696      2.744      4.123
REMARK INTER + INTRA:          -5.204
REMARK INTER:                  -4.796
REMARK INTRA:                  -0.408
REMARK UNBOUND:                -0.212
REMARK  Name = C:\Users\sofiya chavarekar\OneDrive\Assignment- Module 1\PROJECT(AI-based drug target identification for SDH-related rare disorders)\Data\Ligands\PDB\Ligand_0091.pdb
REMARK  8 active torsions:
REMARK  status: ('A' for Active; 'I' for Inactive)
REMARK    1  A    between atoms: C_1  and  C_2
REMARK    2  A    between atoms: C_2  and  C_3
REMARK    3  A    between atoms: C_3  and  C_4
REMARK    4  A    between atoms: C_4  and  C_5
REMARK    5  A    between atoms: C_5  and  C_6
REMARK    6  A    between atoms: C_6  and  O_8
REMARK    7  A    between atoms: O_8  and  C_9
REMARK    8  A    between atoms: C_9  and  C_10
REMARK                            x       y       z     vdW  Elec       q    Type
REMARK                         _______ _______ _______ _____ _____    ______ ____
ROOT
ATOM      1  C   UNL     1     -14.966   5.954  26.509  0.00  0.00    +0.000 C 
ENDROOT
BRANCH   1   2
ATOM      2  C   UNL     1     -13.909   6.965  26.104  0.00  0.00    +0.000 C 
ATOM      3  O   UNL     1     -13.757   8.069  26.607  0.00  0.00    +0.000 OA
BRANCH   2   4
ATOM      4  O   UNL     1     -13.144   6.457  25.092  0.00  0.00    +0.000 OA
BRANCH   4   5
ATOM      5  C   UNL     1     -11.734   6.736  25.152  0.00  0.00    +0.000 C 
ATOM      6  C   UNL     1     -10.973   5.569  25.753  0.00  0.00    +0.000 C 
ENDBRANCH   4   5
ENDBRANCH   2   4
ENDBRANCH   1   2
BRANCH   1   7
ATOM      7  C   UNL     1     -14.573   4.514  26.143  0.00  0.00    +0.000 C 
BRANCH   7   8
ATOM      8  C   UNL     1     -13.787   3.754  27.222  0.00  0.00    +0.000 C 
BRANCH   8  10
ATOM      9  C   UNL     1     -15.677   2.087  26.988  0.00  0.00    +0.000 C 
ATOM     10  C   UNL     1     -14.566   2.616  27.887  0.00  0.00    +0.000 C 
ENDBRANCH   8  10
ENDBRANCH   7   8
ENDBRANCH   1   7
TORSDOF 6
ENDMDL
MODEL 7
REMARK VINA RESULT:    -3.657      2.863      4.828
REMARK INTER + INTRA:          -5.151
REMARK INTER:                  -4.846
REMARK INTRA:                  -0.305
REMARK UNBOUND:                -0.212
REMARK  Name = C:\Users\sofiya chavarekar\OneDrive\Assignment- Module 1\PROJECT(AI-based drug target identification for SDH-related rare disorders)\Data\Ligands\PDB\Ligand_0091.pdb
REMARK  8 active torsions:
REMARK  status: ('A' for Active; 'I' for Inactive)
REMARK    1  A    between atoms: C_1  and  C_2
REMARK    2  A    between atoms: C_2  and  C_3
REMARK    3  A    between atoms: C_3  and  C_4
REMARK    4  A    between atoms: C_4  and  C_5
REMARK    5  A    between atoms: C_5  and  C_6
REMARK    6  A    between atoms: C_6  and  O_8
REMARK    7  A    between atoms: O_8  and  C_9
REMARK    8  A    between atoms: C_9  and  C_10
REMARK                            x       y       z     vdW  Elec       q    Type
REMARK                         _______ _______ _______ _____ _____    ______ ____
ROOT
ATOM      1  C   UNL     1     -12.384   6.207  26.864  0.00  0.00    +0.000 C 
ENDROOT
BRANCH   1   2
ATOM      2  C   UNL     1     -12.050   6.486  25.410  0.00  0.00    +0.000 C 
ATOM      3  O   UNL     1     -12.754   7.111  24.630  0.00  0.00    +0.000 OA
BRANCH   2   4
ATOM      4  O   UNL     1     -10.839   5.935  25.098  0.00  0.00    +0.000 OA
BRANCH   4   5
ATOM      5  C   UNL     1     -10.201   5.163  26.131  0.00  0.00    +0.000 C 
ATOM      6  C   UNL     1      -9.662   3.856  25.578  0.00  0.00    +0.000 C 
ENDBRANCH   4   5
ENDBRANCH   2   4
ENDBRANCH   1   2
BRANCH   1   7
ATOM      7  C   UNL     1     -13.792   5.617  27.041  0.00  0.00    +0.000 C 
BRANCH   7   8
ATOM      8  C   UNL     1     -13.911   4.110  26.765  0.00  0.00    +0.000 C 
BRANCH   8  10
ATOM      9  C   UNL     1     -14.925   1.929  27.552  0.00  0.00    +0.000 C 
ATOM     10  C   UNL     1     -15.110   3.437  27.437  0.00  0.00    +0.000 C 
ENDBRANCH   8  10
ENDBRANCH   7   8
ENDBRANCH   1   7
TORSDOF 6
ENDMDL
MODEL 8
REMARK VINA RESULT:    -3.597      2.368      3.548
REMARK INTER + INTRA:          -5.071
REMARK INTER:                  -4.585
REMARK INTRA:                  -0.485
REMARK UNBOUND:                -0.212
REMARK  Name = C:\Users\sofiya chavarekar\OneDrive\Assignment- Module 1\PROJECT(AI-based drug target identification for SDH-related rare disorders)\Data\Ligands\PDB\Ligand_0091.pdb
REMARK  8 active torsions:
REMARK  status: ('A' for Active; 'I' for Inactive)
REMARK    1  A    between atoms: C_1  and  C_2
REMARK    2  A    between atoms: C_2  and  C_3
REMARK    3  A    between atoms: C_3  and  C_4
REMARK    4  A    between atoms: C_4  and  C_5
REMARK    5  A    between atoms: C_5  and  C_6
REMARK    6  A    between atoms: C_6  and  O_8
REMARK    7  A    between atoms: O_8  and  C_9
REMARK    8  A    between atoms: C_9  and  C_10
REMARK                            x       y       z     vdW  Elec       q    Type
REMARK                         _______ _______ _______ _____ _____    ______ ____
ROOT
ATOM      1  C   UNL     1     -12.761   5.511  26.193  0.00  0.00    +0.000 C 
ENDROOT
BRANCH   1   2
ATOM      2  C   UNL     1     -12.940   6.908  25.628  0.00  0.00    +0.000 C 
ATOM      3  O   UNL     1     -12.699   7.241  24.476  0.00  0.00    +0.000 OA
BRANCH   2   4
ATOM      4  O   UNL     1     -13.416   7.744  26.598  0.00  0.00    +0.000 OA
BRANCH   4   5
ATOM      5  C   UNL     1     -14.470   8.643  26.209  0.00  0.00    +0.000 C 
ATOM      6  C   UNL     1     -15.819   7.949  26.251  0.00  0.00    +0.000 C 
ENDBRANCH   4   5
ENDBRANCH   2   4
ENDBRANCH   1   2
BRANCH   1   7
ATOM      7  C   UNL     1     -13.390   5.355  27.587  0.00  0.00    +0.000 C 
BRANCH   7   8
ATOM      8  C   UNL     1     -14.209   4.072  27.797  0.00  0.00    +0.000 C 
BRANCH   8  10
ATOM      9  C   UNL     1     -16.550   3.949  26.844  0.00  0.00    +0.000 C 
ATOM     10  C   UNL     1     -15.072   3.671  26.598  0.00  0.00    +0.000 C 
ENDBRANCH   8  10
ENDBRANCH   7   8
ENDBRANCH   1   7
TORSDOF 6
ENDMDL
MODEL 9
REMARK VINA RESULT:    -3.555      2.197      3.074
REMARK INTER + INTRA:          -5.013
REMARK INTER:                  -4.482
REMARK INTRA:                  -0.531
REMARK UNBOUND:                -0.212
REMARK  Name = C:\Users\sofiya chavarekar\OneDrive\Assignment- Module 1\PROJECT(AI-based drug target identification for SDH-related rare disorders)\Data\Ligands\PDB\Ligand_0091.pdb
REMARK  8 active torsions:
REMARK  status: ('A' for Active; 'I' for Inactive)
REMARK    1  A    between atoms: C_1  and  C_2
REMARK    2  A    between atoms: C_2  and  C_3
REMARK    3  A    between atoms: C_3  and  C_4
REMARK    4  A    between atoms: C_4  and  C_5
REMARK    5  A    between atoms: C_5  and  C_6
REMARK    6  A    between atoms: C_6  and  O_8
REMARK    7  A    between atoms: O_8  and  C_9
REMARK    8  A    between atoms: C_9  and  C_10
REMARK                            x       y       z     vdW  Elec       q    Type
REMARK                         _______ _______ _______ _____ _____    ______ ____
ROOT
ATOM      1  C   UNL     1     -13.396   7.250  25.512  0.00  0.00    +0.000 C 
ENDROOT
BRANCH   1   2
ATOM      2  C   UNL     1     -14.475   8.067  26.198  0.00  0.00    +0.000 C 
ATOM      3  O   UNL     1     -14.277   9.020  26.938  0.00  0.00    +0.000 OA
BRANCH   2   4
ATOM      4  O   UNL     1     -15.708   7.582  25.864  0.00  0.00    +0.000 OA
BRANCH   4   5
ATOM      5  C   UNL     1     -16.781   7.873  26.777  0.00  0.00    +0.000 C 
ATOM      6  C   UNL     1     -17.196   6.631  27.542  0.00  0.00    +0.000 C 
ENDBRANCH   4   5
ENDBRANCH   2   4
ENDBRANCH   1   2
BRANCH   1   7
ATOM      7  C   UNL     1     -12.614   6.364  26.497  0.00  0.00    +0.000 C 
BRANCH   7   8
ATOM      8  C   UNL     1     -13.477   5.504  27.433  0.00  0.00    +0.000 C 
BRANCH   8  10
ATOM      9  C   UNL     1     -15.050   3.969  26.179  0.00  0.00    +0.000 C 
ATOM     10  C   UNL     1     -13.729   4.081  26.930  0.00  0.00    +0.000 C 
ENDBRANCH   8  10
ENDBRANCH   7   8
ENDBRANCH   1   7
TORSDOF 6
ENDMDL
