MODEL 1
REMARK VINA RESULT:    -3.529      0.000      0.000
REMARK INTER + INTRA:          -3.839
REMARK INTER:                  -3.839
REMARK INTRA:                   0.000
REMARK UNBOUND:                 0.000
REMARK  Name = C:\Users\sofiya chavarekar\OneDrive\Assignment- Module 1\PROJECT(AI-based drug target identification for SDH-related rare disorders)\Data\Ligands\PDB\Ligand_0065.pdb
REMARK  7 active torsions:
REMARK  status: ('A' for Active; 'I' for Inactive)
REMARK    1  A    between atoms: C_1  and  C_2
REMARK    2  A    between atoms: C_2  and  C_3
REMARK    3  A    between atoms: C_2  and  C_4
REMARK    4  A    between atoms: C_2  and  C_5
REMARK    5  A    between atoms: C_5  and  C_6
REMARK    6  A    between atoms: C_5  and  C_7
REMARK    7  A    between atoms: C_5  and  O_8
REMARK                            x       y       z     vdW  Elec       q    Type
REMARK                         _______ _______ _______ _____ _____    ______ ____
ROOT
ATOM      1  C   UNL     1     -13.752   6.533  26.057  0.00  0.00    +0.000 C 
ATOM      2  C   UNL     1     -14.041   8.014  26.351  0.00  0.00    +0.000 C 
ATOM      3  C   UNL     1     -12.252   6.281  26.287  0.00  0.00    +0.000 C 
ENDROOT
BRANCH   1   5
ATOM      4  C   UNL     1     -14.059   5.168  28.222  0.00  0.00    +0.000 C 
ATOM      5  C   UNL     1     -14.686   5.543  26.858  0.00  0.00    +0.000 C 
ATOM      6  C   UNL     1     -14.950   4.235  26.085  0.00  0.00    +0.000 C 
ATOM      7  C   UNL     1     -16.055   6.195  27.166  0.00  0.00    +0.000 C 
ENDBRANCH   1   5
BRANCH   1   8
ATOM      8  O   UNL     1     -13.994   6.330  24.654  0.00  0.00    +0.000 OA
ATOM      9  H   UNL     1     -14.944   6.154  24.533  0.00  0.00    +0.000 HD
ENDBRANCH   1   8
TORSDOF 2
ENDMDL
MODEL 2
REMARK VINA RESULT:    -3.425      1.676      2.209
REMARK INTER + INTRA:          -3.725
REMARK INTER:                  -3.725
REMARK INTRA:                   0.000
REMARK UNBOUND:                 0.000
REMARK  Name = C:\Users\sofiya chavarekar\OneDrive\Assignment- Module 1\PROJECT(AI-based drug target identification for SDH-related rare disorders)\Data\Ligands\PDB\Ligand_0065.pdb
REMARK  7 active torsions:
REMARK  status: ('A' for Active; 'I' for Inactive)
REMARK    1  A    between atoms: C_1  and  C_2
REMARK    2  A    between atoms: C_2  and  C_3
REMARK    3  A    between atoms: C_2  and  C_4
REMARK    4  A    between atoms: C_2  and  C_5
REMARK    5  A    between atoms: C_5  and  C_6
REMARK    6  A    between atoms: C_5  and  C_7
REMARK    7  A    between atoms: C_5  and  O_8
REMARK                            x       y       z     vdW  Elec       q    Type
REMARK                         _______ _______ _______ _____ _____    ______ ____
ROOT
ATOM      1  C   UNL     1     -13.162   5.643  26.519  0.00  0.00    +0.000 C 
ATOM      2  C   UNL     1     -11.735   5.189  26.169  0.00  0.00    +0.000 C 
ATOM      3  C   UNL     1     -13.763   6.333  25.282  0.00  0.00    +0.000 C 
ENDROOT
BRANCH   1   5
ATOM      4  C   UNL     1     -13.221   3.224  27.409  0.00  0.00    +0.000 C 
ATOM      5  C   UNL     1     -14.065   4.481  27.091  0.00  0.00    +0.000 C 
ATOM      6  C   UNL     1     -15.177   4.066  26.105  0.00  0.00    +0.000 C 
ATOM      7  C   UNL     1     -14.743   4.904  28.417  0.00  0.00    +0.000 C 
ENDBRANCH   1   5
BRANCH   1   8
ATOM      8  O   UNL     1     -13.042   6.652  27.537  0.00  0.00    +0.000 OA
ATOM      9  H   UNL     1     -13.646   7.381  27.312  0.00  0.00    +0.000 HD
ENDBRANCH   1   8
TORSDOF 2
ENDMDL
MODEL 3
REMARK VINA RESULT:    -3.288      8.692      9.860
REMARK INTER + INTRA:          -3.576
REMARK INTER:                  -3.576
REMARK INTRA:                   0.000
REMARK UNBOUND:                 0.000
REMARK  Name = C:\Users\sofiya chavarekar\OneDrive\Assignment- Module 1\PROJECT(AI-based drug target identification for SDH-related rare disorders)\Data\Ligands\PDB\Ligand_0065.pdb
REMARK  7 active torsions:
REMARK  status: ('A' for Active; 'I' for Inactive)
REMARK    1  A    between atoms: C_1  and  C_2
REMARK    2  A    between atoms: C_2  and  C_3
REMARK    3  A    between atoms: C_2  and  C_4
REMARK    4  A    between atoms: C_2  and  C_5
REMARK    5  A    between atoms: C_5  and  C_6
REMARK    6  A    between atoms: C_5  and  C_7
REMARK    7  A    between atoms: C_5  and  O_8
REMARK                            x       y       z     vdW  Elec       q    Type
REMARK                         _______ _______ _______ _____ _____    ______ ____
ROOT
ATOM      1  C   UNL     1     -18.969  -1.394  30.909  0.00  0.00    +0.000 C 
ATOM      2  C   UNL     1     -20.258  -1.651  31.708  0.00  0.00    +0.000 C 
ATOM      3  C   UNL     1     -19.364  -0.905  29.506  0.00  0.00    +0.000 C 
ENDROOT
BRANCH   1   5
ATOM      4  C   UNL     1     -18.452   1.033  31.609  0.00  0.00    +0.000 C 
ATOM      5  C   UNL     1     -17.957  -0.432  31.648  0.00  0.00    +0.000 C 
ATOM      6  C   UNL     1     -16.550  -0.471  31.018  0.00  0.00    +0.000 C 
ATOM      7  C   UNL     1     -17.819  -0.811  33.142  0.00  0.00    +0.000 C 
ENDBRANCH   1   5
BRANCH   1   8
ATOM      8  O   UNL     1     -18.323  -2.666  30.736  0.00  0.00    +0.000 OA
ATOM      9  H   UNL     1     -18.292  -3.110  31.602  0.00  0.00    +0.000 HD
ENDBRANCH   1   8
TORSDOF 2
ENDMDL
MODEL 4
REMARK VINA RESULT:    -3.285      8.662      9.829
REMARK INTER + INTRA:          -3.573
REMARK INTER:                  -3.573
REMARK INTRA:                   0.000
REMARK UNBOUND:                 0.000
REMARK  Name = C:\Users\sofiya chavarekar\OneDrive\Assignment- Module 1\PROJECT(AI-based drug target identification for SDH-related rare disorders)\Data\Ligands\PDB\Ligand_0065.pdb
REMARK  7 active torsions:
REMARK  status: ('A' for Active; 'I' for Inactive)
REMARK    1  A    between atoms: C_1  and  C_2
REMARK    2  A    between atoms: C_2  and  C_3
REMARK    3  A    between atoms: C_2  and  C_4
REMARK    4  A    between atoms: C_2  and  C_5
REMARK    5  A    between atoms: C_5  and  C_6
REMARK    6  A    between atoms: C_5  and  C_7
REMARK    7  A    between atoms: C_5  and  O_8
REMARK                            x       y       z     vdW  Elec       q    Type
REMARK                         _______ _______ _______ _____ _____    ______ ____
ROOT
ATOM      1  C   UNL     1     -18.963  -1.408  30.902  0.00  0.00    +0.000 C 
ATOM      2  C   UNL     1     -20.248  -1.650  31.711  0.00  0.00    +0.000 C 
ATOM      3  C   UNL     1     -19.365  -0.945  29.491  0.00  0.00    +0.000 C 
ENDROOT
BRANCH   1   5
ATOM      4  C   UNL     1     -16.557  -0.482  30.939  0.00  0.00    +0.000 C 
ATOM      5  C   UNL     1     -17.947  -0.435  31.618  0.00  0.00    +0.000 C 
ATOM      6  C   UNL     1     -17.756  -0.784  33.108  0.00  0.00    +0.000 C 
ATOM      7  C   UNL     1     -18.429   1.033  31.533  0.00  0.00    +0.000 C 
ENDBRANCH   1   5
BRANCH   1   8
ATOM      8  O   UNL     1     -18.319  -2.685  30.749  0.00  0.00    +0.000 OA
ATOM      9  H   UNL     1     -17.932  -2.933  31.607  0.00  0.00    +0.000 HD
ENDBRANCH   1   8
TORSDOF 2
ENDMDL
MODEL 5
REMARK VINA RESULT:    -3.213      8.287      9.595
REMARK INTER + INTRA:          -3.495
REMARK INTER:                  -3.495
REMARK INTRA:                   0.000
REMARK UNBOUND:                 0.000
REMARK  Name = C:\Users\sofiya chavarekar\OneDrive\Assignment- Module 1\PROJECT(AI-based drug target identification for SDH-related rare disorders)\Data\Ligands\PDB\Ligand_0065.pdb
REMARK  7 active torsions:
REMARK  status: ('A' for Active; 'I' for Inactive)
REMARK    1  A    between atoms: C_1  and  C_2
REMARK    2  A    between atoms: C_2  and  C_3
REMARK    3  A    between atoms: C_2  and  C_4
REMARK    4  A    between atoms: C_2  and  C_5
REMARK    5  A    between atoms: C_5  and  C_6
REMARK    6  A    between atoms: C_5  and  C_7
REMARK    7  A    between atoms: C_5  and  O_8
REMARK                            x       y       z     vdW  Elec       q    Type
REMARK                         _______ _______ _______ _____ _____    ______ ____
ROOT
ATOM      1  C   UNL     1     -18.241  -0.188  32.859  0.00  0.00    +0.000 C 
ATOM      2  C   UNL     1     -18.862   1.105  33.411  0.00  0.00    +0.000 C 
ATOM      3  C   UNL     1     -19.383  -1.116  32.412  0.00  0.00    +0.000 C 
ENDROOT
BRANCH   1   5
ATOM      4  C   UNL     1     -17.565  -0.623  30.409  0.00  0.00    +0.000 C 
ATOM      5  C   UNL     1     -17.162   0.067  31.734  0.00  0.00    +0.000 C 
ATOM      6  C   UNL     1     -15.767  -0.456  32.133  0.00  0.00    +0.000 C 
ATOM      7  C   UNL     1     -17.030   1.577  31.421  0.00  0.00    +0.000 C 
ENDBRANCH   1   5
BRANCH   1   8
ATOM      8  O   UNL     1     -17.585  -0.841  33.959  0.00  0.00    +0.000 OA
ATOM      9  H   UNL     1     -18.120  -1.612  34.216  0.00  0.00    +0.000 HD
ENDBRANCH   1   8
TORSDOF 2
ENDMDL
MODEL 6
REMARK VINA RESULT:    -3.131      8.260      9.454
REMARK INTER + INTRA:          -3.405
REMARK INTER:                  -3.405
REMARK INTRA:                   0.000
REMARK UNBOUND:                 0.000
REMARK  Name = C:\Users\sofiya chavarekar\OneDrive\Assignment- Module 1\PROJECT(AI-based drug target identification for SDH-related rare disorders)\Data\Ligands\PDB\Ligand_0065.pdb
REMARK  7 active torsions:
REMARK  status: ('A' for Active; 'I' for Inactive)
REMARK    1  A    between atoms: C_1  and  C_2
REMARK    2  A    between atoms: C_2  and  C_3
REMARK    3  A    between atoms: C_2  and  C_4
REMARK    4  A    between atoms: C_2  and  C_5
REMARK    5  A    between atoms: C_5  and  C_6
REMARK    6  A    between atoms: C_5  and  C_7
REMARK    7  A    between atoms: C_5  and  O_8
REMARK                            x       y       z     vdW  Elec       q    Type
REMARK                         _______ _______ _______ _____ _____    ______ ____
ROOT
ATOM      1  C   UNL     1     -17.301  -0.320  32.747  0.00  0.00    +0.000 C 
ATOM      2  C   UNL     1     -18.085  -1.223  31.780  0.00  0.00    +0.000 C 
ATOM      3  C   UNL     1     -15.807  -0.429  32.399  0.00  0.00    +0.000 C 
ENDROOT
BRANCH   1   5
ATOM      4  C   UNL     1     -16.850   2.090  33.545  0.00  0.00    +0.000 C 
ATOM      5  C   UNL     1     -17.831   1.167  32.783  0.00  0.00    +0.000 C 
ATOM      6  C   UNL     1     -19.210   1.278  33.466  0.00  0.00    +0.000 C 
ATOM      7  C   UNL     1     -17.962   1.746  31.355  0.00  0.00    +0.000 C 
ENDBRANCH   1   5
BRANCH   1   8
ATOM      8  O   UNL     1     -17.460  -0.878  34.062  0.00  0.00    +0.000 OA
ATOM      9  H   UNL     1     -16.739  -0.543  34.623  0.00  0.00    +0.000 HD
ENDBRANCH   1   8
TORSDOF 2
ENDMDL
MODEL 7
REMARK VINA RESULT:    -3.075      8.689      9.914
REMARK INTER + INTRA:          -3.345
REMARK INTER:                  -3.345
REMARK INTRA:                   0.000
REMARK UNBOUND:                 0.000
REMARK  Name = C:\Users\sofiya chavarekar\OneDrive\Assignment- Module 1\PROJECT(AI-based drug target identification for SDH-related rare disorders)\Data\Ligands\PDB\Ligand_0065.pdb
REMARK  7 active torsions:
REMARK  status: ('A' for Active; 'I' for Inactive)
REMARK    1  A    between atoms: C_1  and  C_2
REMARK    2  A    between atoms: C_2  and  C_3
REMARK    3  A    between atoms: C_2  and  C_4
REMARK    4  A    between atoms: C_2  and  C_5
REMARK    5  A    between atoms: C_5  and  C_6
REMARK    6  A    between atoms: C_5  and  C_7
REMARK    7  A    between atoms: C_5  and  O_8
REMARK                            x       y       z     vdW  Elec       q    Type
REMARK                         _______ _______ _______ _____ _____    ______ ____
ROOT
ATOM      1  C   UNL     1     -18.717  -1.357  30.818  0.00  0.00    +0.000 C 
ATOM      2  C   UNL     1     -17.433  -0.511  30.783  0.00  0.00    +0.000 C 
ATOM      3  C   UNL     1     -19.380  -1.167  32.192  0.00  0.00    +0.000 C 
ENDROOT
BRANCH   1   5
ATOM      4  C   UNL     1     -19.460   0.352  29.035  0.00  0.00    +0.000 C 
ATOM      5  C   UNL     1     -19.688  -1.068  29.606  0.00  0.00    +0.000 C 
ATOM      6  C   UNL     1     -21.173  -1.181  30.009  0.00  0.00    +0.000 C 
ATOM      7  C   UNL     1     -19.437  -2.057  28.443  0.00  0.00    +0.000 C 
ENDBRANCH   1   5
BRANCH   1   8
ATOM      8  O   UNL     1     -18.312  -2.734  30.741  0.00  0.00    +0.000 OA
ATOM      9  H   UNL     1     -17.922  -2.983  31.597  0.00  0.00    +0.000 HD
ENDBRANCH   1   8
TORSDOF 2
ENDMDL
MODEL 8
REMARK VINA RESULT:    -3.061      8.738      9.861
REMARK INTER + INTRA:          -3.330
REMARK INTER:                  -3.330
REMARK INTRA:                   0.000
REMARK UNBOUND:                 0.000
REMARK  Name = C:\Users\sofiya chavarekar\OneDrive\Assignment- Module 1\PROJECT(AI-based drug target identification for SDH-related rare disorders)\Data\Ligands\PDB\Ligand_0065.pdb
REMARK  7 active torsions:
REMARK  status: ('A' for Active; 'I' for Inactive)
REMARK    1  A    between atoms: C_1  and  C_2
REMARK    2  A    between atoms: C_2  and  C_3
REMARK    3  A    between atoms: C_2  and  C_4
REMARK    4  A    between atoms: C_2  and  C_5
REMARK    5  A    between atoms: C_5  and  C_6
REMARK    6  A    between atoms: C_5  and  C_7
REMARK    7  A    between atoms: C_5  and  O_8
REMARK                            x       y       z     vdW  Elec       q    Type
REMARK                         _______ _______ _______ _____ _____    ______ ____
ROOT
ATOM      1  C   UNL     1     -18.679  -1.529  29.933  0.00  0.00    +0.000 C 
ATOM      2  C   UNL     1     -18.828  -2.025  28.485  0.00  0.00    +0.000 C 
ATOM      3  C   UNL     1     -17.485  -0.561  29.989  0.00  0.00    +0.000 C 
ENDROOT
BRANCH   1   5
ATOM      4  C   UNL     1     -20.317  -1.504  31.924  0.00  0.00    +0.000 C 
ATOM      5  C   UNL     1     -20.010  -0.920  30.525  0.00  0.00    +0.000 C 
ATOM      6  C   UNL     1     -21.230  -1.195  29.621  0.00  0.00    +0.000 C 
ATOM      7  C   UNL     1     -19.890   0.613  30.703  0.00  0.00    +0.000 C 
ENDBRANCH   1   5
BRANCH   1   8
ATOM      8  O   UNL     1     -18.323  -2.671  30.731  0.00  0.00    +0.000 OA
ATOM      9  H   UNL     1     -18.170  -2.366  31.643  0.00  0.00    +0.000 HD
ENDBRANCH   1   8
TORSDOF 2
ENDMDL
MODEL 9
REMARK VINA RESULT:    -2.990     10.423     12.072
REMARK INTER + INTRA:          -3.252
REMARK INTER:                  -3.252
REMARK INTRA:                   0.000
REMARK UNBOUND:                 0.000
REMARK  Name = C:\Users\sofiya chavarekar\OneDrive\Assignment- Module 1\PROJECT(AI-based drug target identification for SDH-related rare disorders)\Data\Ligands\PDB\Ligand_0065.pdb
REMARK  7 active torsions:
REMARK  status: ('A' for Active; 'I' for Inactive)
REMARK    1  A    between atoms: C_1  and  C_2
REMARK    2  A    between atoms: C_2  and  C_3
REMARK    3  A    between atoms: C_2  and  C_4
REMARK    4  A    between atoms: C_2  and  C_5
REMARK    5  A    between atoms: C_5  and  C_6
REMARK    6  A    between atoms: C_5  and  C_7
REMARK    7  A    between atoms: C_5  and  O_8
REMARK                            x       y       z     vdW  Elec       q    Type
REMARK                         _______ _______ _______ _____ _____    ______ ____
ROOT
ATOM      1  C   UNL     1     -21.154  -1.955  19.934  0.00  0.00    +0.000 C 
ATOM      2  C   UNL     1     -20.116  -3.032  20.293  0.00  0.00    +0.000 C 
ATOM      3  C   UNL     1     -22.549  -2.599  19.980  0.00  0.00    +0.000 C 
ENDROOT
BRANCH   1   5
ATOM      4  C   UNL     1     -22.227  -0.529  21.794  0.00  0.00    +0.000 C 
ATOM      5  C   UNL     1     -21.034  -0.652  20.817  0.00  0.00    +0.000 C 
ATOM      6  C   UNL     1     -20.990   0.631  19.962  0.00  0.00    +0.000 C 
ATOM      7  C   UNL     1     -19.754  -0.685  21.687  0.00  0.00    +0.000 C 
ENDBRANCH   1   5
BRANCH   1   8
ATOM      8  O   UNL     1     -20.916  -1.584  18.565  0.00  0.00    +0.000 OA
ATOM      9  H   UNL     1     -20.944  -0.613  18.505  0.00  0.00    +0.000 HD
ENDBRANCH   1   8
TORSDOF 2
ENDMDL
