MODEL 1
REMARK VINA RESULT:    -5.690      0.000      0.000
REMARK INTER + INTRA:          -6.113
REMARK INTER:                  -6.022
REMARK INTRA:                  -0.091
REMARK UNBOUND:                -0.091
REMARK  Name = C:\Users\sofiya chavarekar\OneDrive\Assignment- Module 1\PROJECT(AI-based drug target identification for SDH-related rare disorders)\Data\Ligands\PDB\Ligand_0045.pdb
REMARK  1 active torsions:
REMARK  status: ('A' for Active; 'I' for Inactive)
REMARK    1  A    between atoms: C_5  and  C_6
REMARK                            x       y       z     vdW  Elec       q    Type
REMARK                         _______ _______ _______ _____ _____    ______ ____
ROOT
ATOM      1 CL   UNL     1      -9.454   4.284  25.460  0.00  0.00    +0.000 Cl
ATOM      2  C   UNL     1     -10.877   5.213  25.737  0.00  0.00    +0.000 A 
ATOM      3  C   UNL     1     -11.765   4.839  26.739  0.00  0.00    +0.000 A 
ATOM      4  C   UNL     1     -12.929   5.588  26.948  0.00  0.00    +0.000 A 
ATOM      5  C   UNL     1     -13.224   6.741  26.189  0.00  0.00    +0.000 A 
ATOM      6  C   UNL     1     -12.282   7.109  25.212  0.00  0.00    +0.000 A 
ATOM      7  C   UNL     1     -11.132   6.341  24.969  0.00  0.00    +0.000 A 
ENDROOT
BRANCH   5   8
ATOM      8  C   UNL     1     -14.447   7.547  26.459  0.00  0.00    +0.000 A 
ATOM      9  C   UNL     1     -14.347   8.960  26.450  0.00  0.00    +0.000 A 
ATOM     10  C   UNL     1     -15.445   9.792  26.691  0.00  0.00    +0.000 A 
ATOM     11  C   UNL     1     -16.696   9.240  26.921  0.00  0.00    +0.000 A 
ATOM     12  C   UNL     1     -16.839   7.856  26.936  0.00  0.00    +0.000 A 
ATOM     13  C   UNL     1     -15.729   7.017  26.732  0.00  0.00    +0.000 A 
ATOM     14 CL   UNL     1     -16.043   5.320  26.902  0.00  0.00    +0.000 Cl
ENDBRANCH   5   8
TORSDOF 1
ENDMDL
MODEL 2
REMARK VINA RESULT:    -5.477      3.073      5.095
REMARK INTER + INTRA:          -5.887
REMARK INTER:                  -5.683
REMARK INTRA:                  -0.205
REMARK UNBOUND:                -0.091
REMARK  Name = C:\Users\sofiya chavarekar\OneDrive\Assignment- Module 1\PROJECT(AI-based drug target identification for SDH-related rare disorders)\Data\Ligands\PDB\Ligand_0045.pdb
REMARK  1 active torsions:
REMARK  status: ('A' for Active; 'I' for Inactive)
REMARK    1  A    between atoms: C_5  and  C_6
REMARK                            x       y       z     vdW  Elec       q    Type
REMARK                         _______ _______ _______ _____ _____    ______ ____
ROOT
ATOM      1 CL   UNL     1     -16.694   0.038  28.367  0.00  0.00    +0.000 Cl
ATOM      2  C   UNL     1     -15.752   1.386  27.858  0.00  0.00    +0.000 A 
ATOM      3  C   UNL     1     -14.535   1.653  28.473  0.00  0.00    +0.000 A 
ATOM      4  C   UNL     1     -13.782   2.761  28.067  0.00  0.00    +0.000 A 
ATOM      5  C   UNL     1     -14.204   3.611  27.023  0.00  0.00    +0.000 A 
ATOM      6  C   UNL     1     -15.422   3.286  26.400  0.00  0.00    +0.000 A 
ATOM      7  C   UNL     1     -16.202   2.200  26.828  0.00  0.00    +0.000 A 
ENDROOT
BRANCH   5   8
ATOM      8  C   UNL     1     -13.365   4.759  26.578  0.00  0.00    +0.000 A 
ATOM      9  C   UNL     1     -11.969   4.565  26.432  0.00  0.00    +0.000 A 
ATOM     10  C   UNL     1     -11.109   5.587  26.017  0.00  0.00    +0.000 A 
ATOM     11  C   UNL     1     -11.619   6.838  25.702  0.00  0.00    +0.000 A 
ATOM     12  C   UNL     1     -12.985   7.070  25.831  0.00  0.00    +0.000 A 
ATOM     13  C   UNL     1     -13.846   6.055  26.283  0.00  0.00    +0.000 A 
ATOM     14 CL   UNL     1     -15.498   6.533  26.508  0.00  0.00    +0.000 Cl
ENDBRANCH   5   8
TORSDOF 1
ENDMDL
MODEL 3
REMARK VINA RESULT:    -5.424      3.054      4.432
REMARK INTER + INTRA:          -5.832
REMARK INTER:                  -5.564
REMARK INTRA:                  -0.268
REMARK UNBOUND:                -0.091
REMARK  Name = C:\Users\sofiya chavarekar\OneDrive\Assignment- Module 1\PROJECT(AI-based drug target identification for SDH-related rare disorders)\Data\Ligands\PDB\Ligand_0045.pdb
REMARK  1 active torsions:
REMARK  status: ('A' for Active; 'I' for Inactive)
REMARK    1  A    between atoms: C_5  and  C_6
REMARK                            x       y       z     vdW  Elec       q    Type
REMARK                         _______ _______ _______ _____ _____    ______ ____
ROOT
ATOM      1 CL   UNL     1     -15.455  -0.286  27.965  0.00  0.00    +0.000 Cl
ATOM      2  C   UNL     1     -15.167   1.369  27.590  0.00  0.00    +0.000 A 
ATOM      3  C   UNL     1     -15.965   2.018  26.656  0.00  0.00    +0.000 A 
ATOM      4  C   UNL     1     -15.715   3.359  26.342  0.00  0.00    +0.000 A 
ATOM      5  C   UNL     1     -14.687   4.095  26.969  0.00  0.00    +0.000 A 
ATOM      6  C   UNL     1     -13.926   3.415  27.936  0.00  0.00    +0.000 A 
ATOM      7  C   UNL     1     -14.144   2.059  28.227  0.00  0.00    +0.000 A 
ENDROOT
BRANCH   5   8
ATOM      8  C   UNL     1     -14.468   5.534  26.652  0.00  0.00    +0.000 A 
ATOM      9  C   UNL     1     -15.577   6.414  26.680  0.00  0.00    +0.000 A 
ATOM     10  C   UNL     1     -15.459   7.779  26.398  0.00  0.00    +0.000 A 
ATOM     11  C   UNL     1     -14.218   8.323  26.105  0.00  0.00    +0.000 A 
ATOM     12  C   UNL     1     -13.102   7.493  26.067  0.00  0.00    +0.000 A 
ATOM     13  C   UNL     1     -13.223   6.114  26.314  0.00  0.00    +0.000 A 
ATOM     14 CL   UNL     1     -11.766   5.195  26.110  0.00  0.00    +0.000 Cl
ENDBRANCH   5   8
TORSDOF 1
ENDMDL
MODEL 4
REMARK VINA RESULT:    -5.390      2.467      3.923
REMARK INTER + INTRA:          -5.795
REMARK INTER:                  -5.786
REMARK INTRA:                  -0.010
REMARK UNBOUND:                -0.091
REMARK  Name = C:\Users\sofiya chavarekar\OneDrive\Assignment- Module 1\PROJECT(AI-based drug target identification for SDH-related rare disorders)\Data\Ligands\PDB\Ligand_0045.pdb
REMARK  1 active torsions:
REMARK  status: ('A' for Active; 'I' for Inactive)
REMARK    1  A    between atoms: C_5  and  C_6
REMARK                            x       y       z     vdW  Elec       q    Type
REMARK                         _______ _______ _______ _____ _____    ______ ____
ROOT
ATOM      1 CL   UNL     1     -10.391   7.405  23.814  0.00  0.00    +0.000 Cl
ATOM      2  C   UNL     1     -11.461   6.582  24.882  0.00  0.00    +0.000 A 
ATOM      3  C   UNL     1     -12.803   6.940  24.931  0.00  0.00    +0.000 A 
ATOM      4  C   UNL     1     -13.665   6.279  25.815  0.00  0.00    +0.000 A 
ATOM      5  C   UNL     1     -13.222   5.229  26.648  0.00  0.00    +0.000 A 
ATOM      6  C   UNL     1     -11.867   4.870  26.541  0.00  0.00    +0.000 A 
ATOM      7  C   UNL     1     -10.987   5.554  25.687  0.00  0.00    +0.000 A 
ENDROOT
BRANCH   5   8
ATOM      8  C   UNL     1     -14.167   4.511  27.548  0.00  0.00    +0.000 A 
ATOM      9  C   UNL     1     -13.973   3.126  27.773  0.00  0.00    +0.000 A 
ATOM     10  C   UNL     1     -14.811   2.377  28.606  0.00  0.00    +0.000 A 
ATOM     11  C   UNL     1     -15.861   2.993  29.270  0.00  0.00    +0.000 A 
ATOM     12  C   UNL     1     -16.086   4.353  29.076  0.00  0.00    +0.000 A 
ATOM     13  C   UNL     1     -15.268   5.100  28.212  0.00  0.00    +0.000 A 
ATOM     14 CL   UNL     1     -15.749   6.751  27.981  0.00  0.00    +0.000 Cl
ENDBRANCH   5   8
TORSDOF 1
ENDMDL
MODEL 5
REMARK VINA RESULT:    -5.369      1.493      2.418
REMARK INTER + INTRA:          -5.774
REMARK INTER:                  -5.890
REMARK INTRA:                   0.116
REMARK UNBOUND:                -0.091
REMARK  Name = C:\Users\sofiya chavarekar\OneDrive\Assignment- Module 1\PROJECT(AI-based drug target identification for SDH-related rare disorders)\Data\Ligands\PDB\Ligand_0045.pdb
REMARK  1 active torsions:
REMARK  status: ('A' for Active; 'I' for Inactive)
REMARK    1  A    between atoms: C_5  and  C_6
REMARK                            x       y       z     vdW  Elec       q    Type
REMARK                         _______ _______ _______ _____ _____    ______ ____
ROOT
ATOM      1 CL   UNL     1      -9.677   4.699  25.476  0.00  0.00    +0.000 Cl
ATOM      2  C   UNL     1     -11.235   5.311  25.876  0.00  0.00    +0.000 A 
ATOM      3  C   UNL     1     -11.605   6.587  25.467  0.00  0.00    +0.000 A 
ATOM      4  C   UNL     1     -12.867   7.086  25.810  0.00  0.00    +0.000 A 
ATOM      5  C   UNL     1     -13.801   6.321  26.540  0.00  0.00    +0.000 A 
ATOM      6  C   UNL     1     -13.405   5.022  26.902  0.00  0.00    +0.000 A 
ATOM      7  C   UNL     1     -12.127   4.528  26.597  0.00  0.00    +0.000 A 
ENDROOT
BRANCH   5   8
ATOM      8  C   UNL     1     -15.155   6.858  26.855  0.00  0.00    +0.000 A 
ATOM      9  C   UNL     1     -16.199   5.945  27.143  0.00  0.00    +0.000 A 
ATOM     10  C   UNL     1     -17.498   6.363  27.452  0.00  0.00    +0.000 A 
ATOM     11  C   UNL     1     -17.795   7.716  27.514  0.00  0.00    +0.000 A 
ATOM     12  C   UNL     1     -16.797   8.647  27.239  0.00  0.00    +0.000 A 
ATOM     13  C   UNL     1     -15.500   8.228  26.892  0.00  0.00    +0.000 A 
ATOM     14 CL   UNL     1     -14.404   9.501  26.459  0.00  0.00    +0.000 Cl
ENDBRANCH   5   8
TORSDOF 1
ENDMDL
MODEL 6
REMARK VINA RESULT:    -5.322      2.486      5.413
REMARK INTER + INTRA:          -5.724
REMARK INTER:                  -5.447
REMARK INTRA:                  -0.277
REMARK UNBOUND:                -0.091
REMARK  Name = C:\Users\sofiya chavarekar\OneDrive\Assignment- Module 1\PROJECT(AI-based drug target identification for SDH-related rare disorders)\Data\Ligands\PDB\Ligand_0045.pdb
REMARK  1 active torsions:
REMARK  status: ('A' for Active; 'I' for Inactive)
REMARK    1  A    between atoms: C_5  and  C_6
REMARK                            x       y       z     vdW  Elec       q    Type
REMARK                         _______ _______ _______ _____ _____    ______ ____
ROOT
ATOM      1 CL   UNL     1     -19.306   3.459  27.695  0.00  0.00    +0.000 Cl
ATOM      2  C   UNL     1     -17.742   4.018  27.243  0.00  0.00    +0.000 A 
ATOM      3  C   UNL     1     -17.312   5.276  27.648  0.00  0.00    +0.000 A 
ATOM      4  C   UNL     1     -16.046   5.733  27.262  0.00  0.00    +0.000 A 
ATOM      5  C   UNL     1     -15.167   4.941  26.492  0.00  0.00    +0.000 A 
ATOM      6  C   UNL     1     -15.623   3.660  26.136  0.00  0.00    +0.000 A 
ATOM      7  C   UNL     1     -16.906   3.210  26.484  0.00  0.00    +0.000 A 
ENDROOT
BRANCH   5   8
ATOM      8  C   UNL     1     -13.808   5.431  26.132  0.00  0.00    +0.000 A 
ATOM      9  C   UNL     1     -13.693   6.608  25.352  0.00  0.00    +0.000 A 
ATOM     10  C   UNL     1     -12.455   7.139  24.972  0.00  0.00    +0.000 A 
ATOM     11  C   UNL     1     -11.281   6.526  25.384  0.00  0.00    +0.000 A 
ATOM     12  C   UNL     1     -11.350   5.368  26.152  0.00  0.00    +0.000 A 
ATOM     13  C   UNL     1     -12.592   4.812  26.505  0.00  0.00    +0.000 A 
ATOM     14 CL   UNL     1     -12.512   3.304  27.358  0.00  0.00    +0.000 Cl
ENDBRANCH   5   8
TORSDOF 1
ENDMDL
MODEL 7
REMARK VINA RESULT:    -5.252      1.757      5.349
REMARK INTER + INTRA:          -5.650
REMARK INTER:                  -5.849
REMARK INTRA:                   0.199
REMARK UNBOUND:                -0.091
REMARK  Name = C:\Users\sofiya chavarekar\OneDrive\Assignment- Module 1\PROJECT(AI-based drug target identification for SDH-related rare disorders)\Data\Ligands\PDB\Ligand_0045.pdb
REMARK  1 active torsions:
REMARK  status: ('A' for Active; 'I' for Inactive)
REMARK    1  A    between atoms: C_5  and  C_6
REMARK                            x       y       z     vdW  Elec       q    Type
REMARK                         _______ _______ _______ _____ _____    ______ ____
ROOT
ATOM      1 CL   UNL     1     -19.250   7.695  27.345  0.00  0.00    +0.000 Cl
ATOM      2  C   UNL     1     -17.613   7.261  27.037  0.00  0.00    +0.000 A 
ATOM      3  C   UNL     1     -17.169   5.978  27.332  0.00  0.00    +0.000 A 
ATOM      4  C   UNL     1     -15.832   5.636  27.096  0.00  0.00    +0.000 A 
ATOM      5  C   UNL     1     -14.914   6.549  26.535  0.00  0.00    +0.000 A 
ATOM      6  C   UNL     1     -15.411   7.825  26.214  0.00  0.00    +0.000 A 
ATOM      7  C   UNL     1     -16.740   8.188  26.484  0.00  0.00    +0.000 A 
ENDROOT
BRANCH   5   8
ATOM      8  C   UNL     1     -13.507   6.149  26.251  0.00  0.00    +0.000 A 
ATOM      9  C   UNL     1     -12.669   7.054  25.555  0.00  0.00    +0.000 A 
ATOM     10  C   UNL     1     -11.336   6.759  25.251  0.00  0.00    +0.000 A 
ATOM     11  C   UNL     1     -10.780   5.557  25.659  0.00  0.00    +0.000 A 
ATOM     12  C   UNL     1     -11.569   4.640  26.347  0.00  0.00    +0.000 A 
ATOM     13  C   UNL     1     -12.920   4.918  26.622  0.00  0.00    +0.000 A 
ATOM     14 CL   UNL     1     -13.801   3.628  27.377  0.00  0.00    +0.000 Cl
ENDBRANCH   5   8
TORSDOF 1
ENDMDL
MODEL 8
REMARK VINA RESULT:    -5.178      2.367      3.304
REMARK INTER + INTRA:          -5.572
REMARK INTER:                  -5.201
REMARK INTRA:                  -0.371
REMARK UNBOUND:                -0.091
REMARK  Name = C:\Users\sofiya chavarekar\OneDrive\Assignment- Module 1\PROJECT(AI-based drug target identification for SDH-related rare disorders)\Data\Ligands\PDB\Ligand_0045.pdb
REMARK  1 active torsions:
REMARK  status: ('A' for Active; 'I' for Inactive)
REMARK    1  A    between atoms: C_5  and  C_6
REMARK                            x       y       z     vdW  Elec       q    Type
REMARK                         _______ _______ _______ _____ _____    ______ ____
ROOT
ATOM      1 CL   UNL     1     -10.667   6.753  24.744  0.00  0.00    +0.000 Cl
ATOM      2  C   UNL     1     -12.145   6.331  25.517  0.00  0.00    +0.000 A 
ATOM      3  C   UNL     1     -13.288   7.089  25.290  0.00  0.00    +0.000 A 
ATOM      4  C   UNL     1     -14.483   6.751  25.936  0.00  0.00    +0.000 A 
ATOM      5  C   UNL     1     -14.579   5.638  26.798  0.00  0.00    +0.000 A 
ATOM      6  C   UNL     1     -13.412   4.874  26.972  0.00  0.00    +0.000 A 
ATOM      7  C   UNL     1     -12.200   5.228  26.360  0.00  0.00    +0.000 A 
ENDROOT
BRANCH   5   8
ATOM      8  C   UNL     1     -15.873   5.272  27.439  0.00  0.00    +0.000 A 
ATOM      9  C   UNL     1     -16.351   6.066  28.511  0.00  0.00    +0.000 A 
ATOM     10  C   UNL     1     -17.556   5.796  29.166  0.00  0.00    +0.000 A 
ATOM     11  C   UNL     1     -18.347   4.734  28.754  0.00  0.00    +0.000 A 
ATOM     12  C   UNL     1     -17.916   3.930  27.704  0.00  0.00    +0.000 A 
ATOM     13  C   UNL     1     -16.687   4.177  27.067  0.00  0.00    +0.000 A 
ATOM     14 CL   UNL     1     -16.231   3.016  25.862  0.00  0.00    +0.000 Cl
ENDBRANCH   5   8
TORSDOF 1
ENDMDL
MODEL 9
REMARK VINA RESULT:    -5.117      3.407      5.610
REMARK INTER + INTRA:          -5.507
REMARK INTER:                  -5.183
REMARK INTRA:                  -0.324
REMARK UNBOUND:                -0.091
REMARK  Name = C:\Users\sofiya chavarekar\OneDrive\Assignment- Module 1\PROJECT(AI-based drug target identification for SDH-related rare disorders)\Data\Ligands\PDB\Ligand_0045.pdb
REMARK  1 active torsions:
REMARK  status: ('A' for Active; 'I' for Inactive)
REMARK    1  A    between atoms: C_5  and  C_6
REMARK                            x       y       z     vdW  Elec       q    Type
REMARK                         _______ _______ _______ _____ _____    ______ ____
ROOT
ATOM      1 CL   UNL     1     -14.458   8.851  26.123  0.00  0.00    +0.000 Cl
ATOM      2  C   UNL     1     -14.510   7.168  26.482  0.00  0.00    +0.000 A 
ATOM      3  C   UNL     1     -15.642   6.620  27.074  0.00  0.00    +0.000 A 
ATOM      4  C   UNL     1     -15.672   5.254  27.380  0.00  0.00    +0.000 A 
ATOM      5  C   UNL     1     -14.593   4.396  27.078  0.00  0.00    +0.000 A 
ATOM      6  C   UNL     1     -13.482   4.980  26.444  0.00  0.00    +0.000 A 
ATOM      7  C   UNL     1     -13.427   6.356  26.171  0.00  0.00    +0.000 A 
ENDROOT
BRANCH   5   8
ATOM      8  C   UNL     1     -14.665   2.938  27.372  0.00  0.00    +0.000 A 
ATOM      9  C   UNL     1     -13.712   2.373  28.254  0.00  0.00    +0.000 A 
ATOM     10  C   UNL     1     -13.710   1.014  28.587  0.00  0.00    +0.000 A 
ATOM     11  C   UNL     1     -14.684   0.172  28.071  0.00  0.00    +0.000 A 
ATOM     12  C   UNL     1     -15.640   0.687  27.201  0.00  0.00    +0.000 A 
ATOM     13  C   UNL     1     -15.622   2.045  26.836  0.00  0.00    +0.000 A 
ATOM     14 CL   UNL     1     -16.801   2.508  25.652  0.00  0.00    +0.000 Cl
ENDBRANCH   5   8
TORSDOF 1
ENDMDL
