MODEL 1
REMARK VINA RESULT:    -2.657      0.000      0.000
REMARK INTER + INTRA:          -2.813
REMARK INTER:                  -2.813
REMARK INTRA:                   0.000
REMARK UNBOUND:                 0.000
REMARK  Name = C:\Users\sofiya chavarekar\OneDrive\Assignment- Module 1\PROJECT(AI-based drug target identification for SDH-related rare disorders)\Data\Ligands\PDB\Ligand_0029.pdb
REMARK  2 active torsions:
REMARK  status: ('A' for Active; 'I' for Inactive)
REMARK    1  A    between atoms: C_1  and  C_2
REMARK    2  A    between atoms: C_2  and  C_4
REMARK                            x       y       z     vdW  Elec       q    Type
REMARK                         _______ _______ _______ _____ _____    ______ ____
ROOT
ATOM      1  C   UNL     1     -13.287   4.736  26.831  0.00  0.00    +0.000 C 
ATOM      2  C   UNL     1     -12.534   6.013  26.484  0.00  0.00    +0.000 C 
ATOM      3 BR   UNL     1     -10.770   5.494  25.780  0.00  0.00    +0.000 Br
ENDROOT
BRANCH   2   4
ATOM      4  C   UNL     1     -13.219   6.871  25.432  0.00  0.00    +0.000 C 
ATOM      5 BR   UNL     1     -14.353   8.223  26.256  0.00  0.00    +0.000 Br
ENDBRANCH   2   4
TORSDOF 1
ENDMDL
MODEL 2
REMARK VINA RESULT:    -2.639      1.925      2.993
REMARK INTER + INTRA:          -2.794
REMARK INTER:                  -2.794
REMARK INTRA:                   0.000
REMARK UNBOUND:                 0.000
REMARK  Name = C:\Users\sofiya chavarekar\OneDrive\Assignment- Module 1\PROJECT(AI-based drug target identification for SDH-related rare disorders)\Data\Ligands\PDB\Ligand_0029.pdb
REMARK  2 active torsions:
REMARK  status: ('A' for Active; 'I' for Inactive)
REMARK    1  A    between atoms: C_1  and  C_2
REMARK    2  A    between atoms: C_2  and  C_4
REMARK                            x       y       z     vdW  Elec       q    Type
REMARK                         _______ _______ _______ _____ _____    ______ ____
ROOT
ATOM      1  C   UNL     1     -14.087   7.520  26.079  0.00  0.00    +0.000 C 
ATOM      2  C   UNL     1     -12.887   6.687  26.506  0.00  0.00    +0.000 C 
ATOM      3 BR   UNL     1     -13.516   4.848  26.818  0.00  0.00    +0.000 Br
ENDROOT
BRANCH   2   4
ATOM      4  C   UNL     1     -11.773   6.627  25.474  0.00  0.00    +0.000 C 
ATOM      5 BR   UNL     1     -10.542   5.164  25.849  0.00  0.00    +0.000 Br
ENDBRANCH   2   4
TORSDOF 1
ENDMDL
MODEL 3
REMARK VINA RESULT:    -2.639      0.778      2.992
REMARK INTER + INTRA:          -2.793
REMARK INTER:                  -2.793
REMARK INTRA:                   0.000
REMARK UNBOUND:                 0.000
REMARK  Name = C:\Users\sofiya chavarekar\OneDrive\Assignment- Module 1\PROJECT(AI-based drug target identification for SDH-related rare disorders)\Data\Ligands\PDB\Ligand_0029.pdb
REMARK  2 active torsions:
REMARK  status: ('A' for Active; 'I' for Inactive)
REMARK    1  A    between atoms: C_1  and  C_2
REMARK    2  A    between atoms: C_2  and  C_4
REMARK                            x       y       z     vdW  Elec       q    Type
REMARK                         _______ _______ _______ _____ _____    ______ ____
ROOT
ATOM      1  C   UNL     1     -13.400   5.257  26.830  0.00  0.00    +0.000 C 
ATOM      2  C   UNL     1     -13.246   6.267  25.701  0.00  0.00    +0.000 C 
ATOM      3 BR   UNL     1     -14.199   7.906  26.230  0.00  0.00    +0.000 Br
ENDROOT
BRANCH   2   4
ATOM      4  C   UNL     1     -11.805   6.645  25.398  0.00  0.00    +0.000 C 
ATOM      5 BR   UNL     1     -10.583   5.206  25.877  0.00  0.00    +0.000 Br
ENDBRANCH   2   4
TORSDOF 1
ENDMDL
MODEL 4
REMARK VINA RESULT:    -2.630      2.030      2.736
REMARK INTER + INTRA:          -2.784
REMARK INTER:                  -2.784
REMARK INTRA:                   0.000
REMARK UNBOUND:                 0.000
REMARK  Name = C:\Users\sofiya chavarekar\OneDrive\Assignment- Module 1\PROJECT(AI-based drug target identification for SDH-related rare disorders)\Data\Ligands\PDB\Ligand_0029.pdb
REMARK  2 active torsions:
REMARK  status: ('A' for Active; 'I' for Inactive)
REMARK    1  A    between atoms: C_1  and  C_2
REMARK    2  A    between atoms: C_2  and  C_4
REMARK                            x       y       z     vdW  Elec       q    Type
REMARK                         _______ _______ _______ _____ _____    ______ ____
ROOT
ATOM      1  C   UNL     1     -10.935   5.555  25.912  0.00  0.00    +0.000 C 
ATOM      2  C   UNL     1     -12.307   5.729  26.549  0.00  0.00    +0.000 C 
ATOM      3 BR   UNL     1     -13.399   6.822  25.329  0.00  0.00    +0.000 Br
ENDROOT
BRANCH   2   4
ATOM      4  C   UNL     1     -13.048   4.425  26.793  0.00  0.00    +0.000 C 
ATOM      5 BR   UNL     1     -14.941   4.600  26.368  0.00  0.00    +0.000 Br
ENDBRANCH   2   4
TORSDOF 1
ENDMDL
MODEL 5
REMARK VINA RESULT:    -2.548      2.050      2.566
REMARK INTER + INTRA:          -2.696
REMARK INTER:                  -2.696
REMARK INTRA:                   0.000
REMARK UNBOUND:                 0.000
REMARK  Name = C:\Users\sofiya chavarekar\OneDrive\Assignment- Module 1\PROJECT(AI-based drug target identification for SDH-related rare disorders)\Data\Ligands\PDB\Ligand_0029.pdb
REMARK  2 active torsions:
REMARK  status: ('A' for Active; 'I' for Inactive)
REMARK    1  A    between atoms: C_1  and  C_2
REMARK    2  A    between atoms: C_2  and  C_4
REMARK                            x       y       z     vdW  Elec       q    Type
REMARK                         _______ _______ _______ _____ _____    ______ ____
ROOT
ATOM      1  C   UNL     1     -13.569   7.206  26.376  0.00  0.00    +0.000 C 
ATOM      2  C   UNL     1     -13.078   5.847  25.895  0.00  0.00    +0.000 C 
ATOM      3 BR   UNL     1     -11.112   5.911  25.828  0.00  0.00    +0.000 Br
ENDROOT
BRANCH   2   4
ATOM      4  C   UNL     1     -13.474   4.689  26.797  0.00  0.00    +0.000 C 
ATOM      5 BR   UNL     1     -15.209   3.962  26.290  0.00  0.00    +0.000 Br
ENDBRANCH   2   4
TORSDOF 1
ENDMDL
MODEL 6
REMARK VINA RESULT:    -2.379      1.750      3.566
REMARK INTER + INTRA:          -2.518
REMARK INTER:                  -2.518
REMARK INTRA:                   0.000
REMARK UNBOUND:                 0.000
REMARK  Name = C:\Users\sofiya chavarekar\OneDrive\Assignment- Module 1\PROJECT(AI-based drug target identification for SDH-related rare disorders)\Data\Ligands\PDB\Ligand_0029.pdb
REMARK  2 active torsions:
REMARK  status: ('A' for Active; 'I' for Inactive)
REMARK    1  A    between atoms: C_1  and  C_2
REMARK    2  A    between atoms: C_2  and  C_4
REMARK                            x       y       z     vdW  Elec       q    Type
REMARK                         _______ _______ _______ _____ _____    ______ ____
ROOT
ATOM      1  C   UNL     1     -14.362   9.155  25.958  0.00  0.00    +0.000 C 
ATOM      2  C   UNL     1     -13.876   7.779  26.394  0.00  0.00    +0.000 C 
ATOM      3 BR   UNL     1     -15.447   6.748  26.979  0.00  0.00    +0.000 Br
ENDROOT
BRANCH   2   4
ATOM      4  C   UNL     1     -13.185   6.988  25.295  0.00  0.00    +0.000 C 
ATOM      5 BR   UNL     1     -11.735   5.903  26.012  0.00  0.00    +0.000 Br
ENDBRANCH   2   4
TORSDOF 1
ENDMDL
MODEL 7
REMARK VINA RESULT:    -2.076      2.558      2.624
REMARK INTER + INTRA:          -2.198
REMARK INTER:                  -2.198
REMARK INTRA:                   0.000
REMARK UNBOUND:                 0.000
REMARK  Name = C:\Users\sofiya chavarekar\OneDrive\Assignment- Module 1\PROJECT(AI-based drug target identification for SDH-related rare disorders)\Data\Ligands\PDB\Ligand_0029.pdb
REMARK  2 active torsions:
REMARK  status: ('A' for Active; 'I' for Inactive)
REMARK    1  A    between atoms: C_1  and  C_2
REMARK    2  A    between atoms: C_2  and  C_4
REMARK                            x       y       z     vdW  Elec       q    Type
REMARK                         _______ _______ _______ _____ _____    ______ ____
ROOT
ATOM      1  C   UNL     1     -16.310   5.553  27.359  0.00  0.00    +0.000 C 
ATOM      2  C   UNL     1     -14.870   6.049  27.341  0.00  0.00    +0.000 C 
ATOM      3 BR   UNL     1     -13.723   4.538  26.816  0.00  0.00    +0.000 Br
ENDROOT
BRANCH   2   4
ATOM      4  C   UNL     1     -14.617   7.185  26.364  0.00  0.00    +0.000 C 
ATOM      5 BR   UNL     1     -12.993   6.879  25.333  0.00  0.00    +0.000 Br
ENDBRANCH   2   4
TORSDOF 1
ENDMDL
MODEL 8
REMARK VINA RESULT:    -1.986      2.684      3.854
REMARK INTER + INTRA:          -2.102
REMARK INTER:                  -2.102
REMARK INTRA:                   0.000
REMARK UNBOUND:                 0.000
REMARK  Name = C:\Users\sofiya chavarekar\OneDrive\Assignment- Module 1\PROJECT(AI-based drug target identification for SDH-related rare disorders)\Data\Ligands\PDB\Ligand_0029.pdb
REMARK  2 active torsions:
REMARK  status: ('A' for Active; 'I' for Inactive)
REMARK    1  A    between atoms: C_1  and  C_2
REMARK    2  A    between atoms: C_2  and  C_4
REMARK                            x       y       z     vdW  Elec       q    Type
REMARK                         _______ _______ _______ _____ _____    ______ ____
ROOT
ATOM      1  C   UNL     1     -16.567   7.970  27.865  0.00  0.00    +0.000 C 
ATOM      2  C   UNL     1     -15.754   7.758  26.595  0.00  0.00    +0.000 C 
ATOM      3 BR   UNL     1     -14.704   9.392  26.277  0.00  0.00    +0.000 Br
ENDROOT
BRANCH   2   4
ATOM      4  C   UNL     1     -14.784   6.590  26.666  0.00  0.00    +0.000 C 
ATOM      5 BR   UNL     1     -13.236   6.888  25.522  0.00  0.00    +0.000 Br
ENDBRANCH   2   4
TORSDOF 1
ENDMDL
