MODEL 1
REMARK VINA RESULT:    -4.304      0.000      0.000
REMARK INTER + INTRA:          -4.304
REMARK INTER:                  -4.304
REMARK INTRA:                   0.000
REMARK UNBOUND:                 0.000
REMARK  Name = C:\Users\sofiya chavarekar\OneDrive\Assignment- Module 1\PROJECT(AI-based drug target identification for SDH-related rare disorders)\Data\Ligands\PDB\Ligand_0043.pdb
REMARK  0 active torsions:
REMARK  status: ('A' for Active; 'I' for Inactive)
REMARK                            x       y       z     vdW  Elec       q    Type
REMARK                         _______ _______ _______ _____ _____    ______ ____
ROOT
ATOM      1  F   UNL     1     -10.067   5.095  26.416  0.00  0.00    +0.000 F 
ATOM      2  C   UNL     1     -11.286   5.548  26.095  0.00  0.00    +0.000 A 
ATOM      3  C   UNL     1     -11.405   6.681  25.293  0.00  0.00    +0.000 A 
ATOM      4  C   UNL     1     -12.671   7.163  24.958  0.00  0.00    +0.000 A 
ATOM      5  C   UNL     1     -13.806   6.503  25.431  0.00  0.00    +0.000 A 
ATOM      6  C   UNL     1     -13.664   5.369  26.229  0.00  0.00    +0.000 A 
ATOM      7  F   UNL     1     -14.758   4.739  26.675  0.00  0.00    +0.000 F 
ATOM      8  C   UNL     1     -12.409   4.883  26.568  0.00  0.00    +0.000 A 
ENDROOT
TORSDOF 0
ENDMDL
MODEL 2
REMARK VINA RESULT:    -4.247      1.450      2.234
REMARK INTER + INTRA:          -4.247
REMARK INTER:                  -4.247
REMARK INTRA:                   0.000
REMARK UNBOUND:                 0.000
REMARK  Name = C:\Users\sofiya chavarekar\OneDrive\Assignment- Module 1\PROJECT(AI-based drug target identification for SDH-related rare disorders)\Data\Ligands\PDB\Ligand_0043.pdb
REMARK  0 active torsions:
REMARK  status: ('A' for Active; 'I' for Inactive)
REMARK                            x       y       z     vdW  Elec       q    Type
REMARK                         _______ _______ _______ _____ _____    ______ ____
ROOT
ATOM      1  F   UNL     1     -10.447   7.301  24.160  0.00  0.00    +0.000 F 
ATOM      2  C   UNL     1     -11.360   6.689  24.925  0.00  0.00    +0.000 A 
ATOM      3  C   UNL     1     -10.978   5.601  25.708  0.00  0.00    +0.000 A 
ATOM      4  C   UNL     1     -11.924   4.955  26.504  0.00  0.00    +0.000 A 
ATOM      5  C   UNL     1     -13.245   5.406  26.507  0.00  0.00    +0.000 A 
ATOM      6  C   UNL     1     -13.604   6.498  25.718  0.00  0.00    +0.000 A 
ATOM      7  F   UNL     1     -14.873   6.928  25.730  0.00  0.00    +0.000 F 
ATOM      8  C   UNL     1     -12.670   7.147  24.924  0.00  0.00    +0.000 A 
ENDROOT
TORSDOF 0
ENDMDL
MODEL 3
REMARK VINA RESULT:    -4.238      0.295      2.903
REMARK INTER + INTRA:          -4.238
REMARK INTER:                  -4.238
REMARK INTRA:                   0.000
REMARK UNBOUND:                 0.000
REMARK  Name = C:\Users\sofiya chavarekar\OneDrive\Assignment- Module 1\PROJECT(AI-based drug target identification for SDH-related rare disorders)\Data\Ligands\PDB\Ligand_0043.pdb
REMARK  0 active torsions:
REMARK  status: ('A' for Active; 'I' for Inactive)
REMARK                            x       y       z     vdW  Elec       q    Type
REMARK                         _______ _______ _______ _____ _____    ______ ____
ROOT
ATOM      1  F   UNL     1     -14.867   5.255  26.671  0.00  0.00    +0.000 F 
ATOM      2  C   UNL     1     -13.700   5.701  26.186  0.00  0.00    +0.000 A 
ATOM      3  C   UNL     1     -13.690   6.801  25.332  0.00  0.00    +0.000 A 
ATOM      4  C   UNL     1     -12.479   7.268  24.820  0.00  0.00    +0.000 A 
ATOM      5  C   UNL     1     -11.289   6.627  25.169  0.00  0.00    +0.000 A 
ATOM      6  C   UNL     1     -11.323   5.529  26.028  0.00  0.00    +0.000 A 
ATOM      7  F   UNL     1     -10.178   4.922  26.363  0.00  0.00    +0.000 F 
ATOM      8  C   UNL     1     -12.522   5.057  26.543  0.00  0.00    +0.000 A 
ENDROOT
TORSDOF 0
ENDMDL
MODEL 4
REMARK VINA RESULT:    -4.198      1.449      3.601
REMARK INTER + INTRA:          -4.198
REMARK INTER:                  -4.198
REMARK INTRA:                   0.000
REMARK UNBOUND:                 0.000
REMARK  Name = C:\Users\sofiya chavarekar\OneDrive\Assignment- Module 1\PROJECT(AI-based drug target identification for SDH-related rare disorders)\Data\Ligands\PDB\Ligand_0043.pdb
REMARK  0 active torsions:
REMARK  status: ('A' for Active; 'I' for Inactive)
REMARK                            x       y       z     vdW  Elec       q    Type
REMARK                         _______ _______ _______ _____ _____    ______ ____
ROOT
ATOM      1  F   UNL     1     -14.815   6.697  25.792  0.00  0.00    +0.000 F 
ATOM      2  C   UNL     1     -13.525   6.340  25.739  0.00  0.00    +0.000 A 
ATOM      3  C   UNL     1     -13.085   5.253  26.490  0.00  0.00    +0.000 A 
ATOM      4  C   UNL     1     -11.742   4.878  26.443  0.00  0.00    +0.000 A 
ATOM      5  C   UNL     1     -10.853   5.598  25.644  0.00  0.00    +0.000 A 
ATOM      6  C   UNL     1     -11.316   6.681  24.899  0.00  0.00    +0.000 A 
ATOM      7  F   UNL     1     -10.458   7.365  24.131  0.00  0.00    +0.000 F 
ATOM      8  C   UNL     1     -12.649   7.062  24.939  0.00  0.00    +0.000 A 
ENDROOT
TORSDOF 0
ENDMDL
MODEL 5
REMARK VINA RESULT:    -3.731      1.687      2.998
REMARK INTER + INTRA:          -3.731
REMARK INTER:                  -3.731
REMARK INTRA:                   0.000
REMARK UNBOUND:                 0.000
REMARK  Name = C:\Users\sofiya chavarekar\OneDrive\Assignment- Module 1\PROJECT(AI-based drug target identification for SDH-related rare disorders)\Data\Ligands\PDB\Ligand_0043.pdb
REMARK  0 active torsions:
REMARK  status: ('A' for Active; 'I' for Inactive)
REMARK                            x       y       z     vdW  Elec       q    Type
REMARK                         _______ _______ _______ _____ _____    ______ ____
ROOT
ATOM      1  F   UNL     1     -15.753   7.306  27.067  0.00  0.00    +0.000 F 
ATOM      2  C   UNL     1     -14.588   6.709  26.781  0.00  0.00    +0.000 A 
ATOM      3  C   UNL     1     -13.563   7.453  26.202  0.00  0.00    +0.000 A 
ATOM      4  C   UNL     1     -12.348   6.838  25.897  0.00  0.00    +0.000 A 
ATOM      5  C   UNL     1     -12.175   5.481  26.175  0.00  0.00    +0.000 A 
ATOM      6  C   UNL     1     -13.214   4.757  26.757  0.00  0.00    +0.000 A 
ATOM      7  F   UNL     1     -13.038   3.456  27.025  0.00  0.00    +0.000 F 
ATOM      8  C   UNL     1     -14.425   5.360  27.064  0.00  0.00    +0.000 A 
ENDROOT
TORSDOF 0
ENDMDL
MODEL 6
REMARK VINA RESULT:    -3.679      1.663      2.681
REMARK INTER + INTRA:          -3.679
REMARK INTER:                  -3.679
REMARK INTRA:                   0.000
REMARK UNBOUND:                 0.000
REMARK  Name = C:\Users\sofiya chavarekar\OneDrive\Assignment- Module 1\PROJECT(AI-based drug target identification for SDH-related rare disorders)\Data\Ligands\PDB\Ligand_0043.pdb
REMARK  0 active torsions:
REMARK  status: ('A' for Active; 'I' for Inactive)
REMARK                            x       y       z     vdW  Elec       q    Type
REMARK                         _______ _______ _______ _____ _____    ______ ____
ROOT
ATOM      1  F   UNL     1     -13.808   4.135  27.618  0.00  0.00    +0.000 F 
ATOM      2  C   UNL     1     -13.181   5.070  26.893  0.00  0.00    +0.000 A 
ATOM      3  C   UNL     1     -11.891   4.825  26.429  0.00  0.00    +0.000 A 
ATOM      4  C   UNL     1     -11.229   5.796  25.677  0.00  0.00    +0.000 A 
ATOM      5  C   UNL     1     -11.868   7.005  25.398  0.00  0.00    +0.000 A 
ATOM      6  C   UNL     1     -13.160   7.228  25.870  0.00  0.00    +0.000 A 
ATOM      7  F   UNL     1     -13.769   8.389  25.594  0.00  0.00    +0.000 F 
ATOM      8  C   UNL     1     -13.827   6.268  26.618  0.00  0.00    +0.000 A 
ENDROOT
TORSDOF 0
ENDMDL
MODEL 7
REMARK VINA RESULT:    -3.147     11.376     12.497
REMARK INTER + INTRA:          -3.147
REMARK INTER:                  -3.147
REMARK INTRA:                   0.000
REMARK UNBOUND:                 0.000
REMARK  Name = C:\Users\sofiya chavarekar\OneDrive\Assignment- Module 1\PROJECT(AI-based drug target identification for SDH-related rare disorders)\Data\Ligands\PDB\Ligand_0043.pdb
REMARK  0 active torsions:
REMARK  status: ('A' for Active; 'I' for Inactive)
REMARK                            x       y       z     vdW  Elec       q    Type
REMARK                         _______ _______ _______ _____ _____    ______ ____
ROOT
ATOM      1  F   UNL     1     -19.462  -6.103  22.713  0.00  0.00    +0.000 F 
ATOM      2  C   UNL     1     -19.456  -4.857  22.222  0.00  0.00    +0.000 A 
ATOM      3  C   UNL     1     -20.147  -4.582  21.044  0.00  0.00    +0.000 A 
ATOM      4  C   UNL     1     -20.141  -3.287  20.525  0.00  0.00    +0.000 A 
ATOM      5  C   UNL     1     -19.442  -2.280  21.192  0.00  0.00    +0.000 A 
ATOM      6  C   UNL     1     -18.760  -2.577  22.371  0.00  0.00    +0.000 A 
ATOM      7  F   UNL     1     -18.096  -1.605  23.008  0.00  0.00    +0.000 F 
ATOM      8  C   UNL     1     -18.760  -3.862  22.895  0.00  0.00    +0.000 A 
ENDROOT
TORSDOF 0
ENDMDL
MODEL 8
REMARK VINA RESULT:    -3.122      9.359     10.481
REMARK INTER + INTRA:          -3.122
REMARK INTER:                  -3.122
REMARK INTRA:                   0.000
REMARK UNBOUND:                 0.000
REMARK  Name = C:\Users\sofiya chavarekar\OneDrive\Assignment- Module 1\PROJECT(AI-based drug target identification for SDH-related rare disorders)\Data\Ligands\PDB\Ligand_0043.pdb
REMARK  0 active torsions:
REMARK  status: ('A' for Active; 'I' for Inactive)
REMARK                            x       y       z     vdW  Elec       q    Type
REMARK                         _______ _______ _______ _____ _____    ______ ____
ROOT
ATOM      1  F   UNL     1     -20.434  -0.364  20.828  0.00  0.00    +0.000 F 
ATOM      2  C   UNL     1     -19.544  -0.754  21.750  0.00  0.00    +0.000 A 
ATOM      3  C   UNL     1     -18.979   0.194  22.600  0.00  0.00    +0.000 A 
ATOM      4  C   UNL     1     -18.048  -0.204  23.560  0.00  0.00    +0.000 A 
ATOM      5  C   UNL     1     -17.693  -1.550  23.659  0.00  0.00    +0.000 A 
ATOM      6  C   UNL     1     -18.273  -2.482  22.800  0.00  0.00    +0.000 A 
ATOM      7  F   UNL     1     -17.930  -3.773  22.903  0.00  0.00    +0.000 F 
ATOM      8  C   UNL     1     -19.199  -2.096  21.842  0.00  0.00    +0.000 A 
ENDROOT
TORSDOF 0
ENDMDL
MODEL 9
REMARK VINA RESULT:    -2.972      2.535      4.247
REMARK INTER + INTRA:          -2.972
REMARK INTER:                  -2.972
REMARK INTRA:                   0.000
REMARK UNBOUND:                 0.000
REMARK  Name = C:\Users\sofiya chavarekar\OneDrive\Assignment- Module 1\PROJECT(AI-based drug target identification for SDH-related rare disorders)\Data\Ligands\PDB\Ligand_0043.pdb
REMARK  0 active torsions:
REMARK  status: ('A' for Active; 'I' for Inactive)
REMARK                            x       y       z     vdW  Elec       q    Type
REMARK                         _______ _______ _______ _____ _____    ______ ____
ROOT
ATOM      1  F   UNL     1     -17.704   7.377  26.970  0.00  0.00    +0.000 F 
ATOM      2  C   UNL     1     -16.394   7.471  26.705  0.00  0.00    +0.000 A 
ATOM      3  C   UNL     1     -15.848   8.712  26.390  0.00  0.00    +0.000 A 
ATOM      4  C   UNL     1     -14.486   8.818  26.108  0.00  0.00    +0.000 A 
ATOM      5  C   UNL     1     -13.684   7.676  26.145  0.00  0.00    +0.000 A 
ATOM      6  C   UNL     1     -14.251   6.444  26.467  0.00  0.00    +0.000 A 
ATOM      7  F   UNL     1     -13.475   5.353  26.505  0.00  0.00    +0.000 F 
ATOM      8  C   UNL     1     -15.605   6.329  26.748  0.00  0.00    +0.000 A 
ENDROOT
TORSDOF 0
ENDMDL
