MODEL 1
REMARK VINA RESULT:    -4.699      0.000      0.000
REMARK INTER + INTRA:          -4.708
REMARK INTER:                  -4.973
REMARK INTRA:                   0.265
REMARK UNBOUND:                 0.265
REMARK  Name = C:\Users\sofiya chavarekar\OneDrive\Assignment- Module 1\PROJECT(AI-based drug target identification for SDH-related rare disorders)\Data\Ligands\PDB\Ligand_0099.pdb
REMARK  1 active torsions:
REMARK  status: ('A' for Active; 'I' for Inactive)
REMARK    1  A    between atoms: C_4  and  C_5
REMARK                            x       y       z     vdW  Elec       q    Type
REMARK                         _______ _______ _______ _____ _____    ______ ____
ROOT
ATOM      1  C   UNL     1     -13.770   6.587  25.667  0.00  0.00    +0.000 A 
ATOM      2  C   UNL     1     -12.693   7.156  24.992  0.00  0.00    +0.000 A 
ATOM      3  C   UNL     1     -11.416   6.603  25.118  0.00  0.00    +0.000 A 
ATOM      4  C   UNL     1     -11.184   5.472  25.918  0.00  0.00    +0.000 A 
ATOM      5  C   UNL     1     -12.284   4.930  26.604  0.00  0.00    +0.000 A 
ATOM      6  C   UNL     1     -13.565   5.477  26.480  0.00  0.00    +0.000 A 
ENDROOT
BRANCH   4   7
ATOM      7  C   UNL     1      -9.828   4.823  25.994  0.00  0.00    +0.000 C 
ATOM      8  C   UNL     1      -9.656   3.336  25.800  0.00  0.00    +0.000 C 
ATOM      9  O   UNL     1      -9.286   4.269  24.780  0.00  0.00    +0.000 OA
ENDBRANCH   4   7
TORSDOF 1
ENDMDL
MODEL 2
REMARK VINA RESULT:    -4.567      2.268      3.646
REMARK INTER + INTRA:          -4.569
REMARK INTER:                  -4.654
REMARK INTRA:                   0.085
REMARK UNBOUND:                 0.265
REMARK  Name = C:\Users\sofiya chavarekar\OneDrive\Assignment- Module 1\PROJECT(AI-based drug target identification for SDH-related rare disorders)\Data\Ligands\PDB\Ligand_0099.pdb
REMARK  1 active torsions:
REMARK  status: ('A' for Active; 'I' for Inactive)
REMARK    1  A    between atoms: C_4  and  C_5
REMARK                            x       y       z     vdW  Elec       q    Type
REMARK                         _______ _______ _______ _____ _____    ______ ____
ROOT
ATOM      1  C   UNL     1     -11.381   6.693  25.308  0.00  0.00    +0.000 A 
ATOM      2  C   UNL     1     -12.675   7.103  24.997  0.00  0.00    +0.000 A 
ATOM      3  C   UNL     1     -13.772   6.384  25.480  0.00  0.00    +0.000 A 
ATOM      4  C   UNL     1     -13.604   5.243  26.282  0.00  0.00    +0.000 A 
ATOM      5  C   UNL     1     -12.288   4.839  26.563  0.00  0.00    +0.000 A 
ATOM      6  C   UNL     1     -11.186   5.555  26.086  0.00  0.00    +0.000 A 
ENDROOT
BRANCH   4   7
ATOM      7  C   UNL     1     -14.781   4.511  26.871  0.00  0.00    +0.000 C 
ATOM      8  C   UNL     1     -15.595   3.543  26.050  0.00  0.00    +0.000 C 
ATOM      9  O   UNL     1     -14.663   3.085  27.035  0.00  0.00    +0.000 OA
ENDBRANCH   4   7
TORSDOF 1
ENDMDL
MODEL 3
REMARK VINA RESULT:    -4.518      2.149      3.682
REMARK INTER + INTRA:          -4.517
REMARK INTER:                  -4.627
REMARK INTRA:                   0.110
REMARK UNBOUND:                 0.265
REMARK  Name = C:\Users\sofiya chavarekar\OneDrive\Assignment- Module 1\PROJECT(AI-based drug target identification for SDH-related rare disorders)\Data\Ligands\PDB\Ligand_0099.pdb
REMARK  1 active torsions:
REMARK  status: ('A' for Active; 'I' for Inactive)
REMARK    1  A    between atoms: C_4  and  C_5
REMARK                            x       y       z     vdW  Elec       q    Type
REMARK                         _______ _______ _______ _____ _____    ______ ____
ROOT
ATOM      1  C   UNL     1     -11.249   6.720  24.990  0.00  0.00    +0.000 A 
ATOM      2  C   UNL     1     -10.984   5.616  25.795  0.00  0.00    +0.000 A 
ATOM      3  C   UNL     1     -12.030   4.958  26.448  0.00  0.00    +0.000 A 
ATOM      4  C   UNL     1     -13.361   5.385  26.311  0.00  0.00    +0.000 A 
ATOM      5  C   UNL     1     -13.599   6.514  25.509  0.00  0.00    +0.000 A 
ATOM      6  C   UNL     1     -12.557   7.175  24.851  0.00  0.00    +0.000 A 
ENDROOT
BRANCH   4   7
ATOM      7  C   UNL     1     -14.501   4.632  26.946  0.00  0.00    +0.000 C 
ATOM      8  C   UNL     1     -15.342   3.664  26.151  0.00  0.00    +0.000 C 
ATOM      9  O   UNL     1     -14.360   3.206  27.086  0.00  0.00    +0.000 OA
ENDBRANCH   4   7
TORSDOF 1
ENDMDL
MODEL 4
REMARK VINA RESULT:    -4.238      2.559      4.345
REMARK INTER + INTRA:          -4.220
REMARK INTER:                  -4.627
REMARK INTRA:                   0.407
REMARK UNBOUND:                 0.265
REMARK  Name = C:\Users\sofiya chavarekar\OneDrive\Assignment- Module 1\PROJECT(AI-based drug target identification for SDH-related rare disorders)\Data\Ligands\PDB\Ligand_0099.pdb
REMARK  1 active torsions:
REMARK  status: ('A' for Active; 'I' for Inactive)
REMARK    1  A    between atoms: C_4  and  C_5
REMARK                            x       y       z     vdW  Elec       q    Type
REMARK                         _______ _______ _______ _____ _____    ______ ____
ROOT
ATOM      1  C   UNL     1     -10.508   5.578  25.325  0.00  0.00    +0.000 A 
ATOM      2  C   UNL     1     -11.291   4.965  26.298  0.00  0.00    +0.000 A 
ATOM      3  C   UNL     1     -12.572   5.451  26.575  0.00  0.00    +0.000 A 
ATOM      4  C   UNL     1     -13.099   6.558  25.888  0.00  0.00    +0.000 A 
ATOM      5  C   UNL     1     -12.279   7.170  24.925  0.00  0.00    +0.000 A 
ATOM      6  C   UNL     1     -10.998   6.687  24.642  0.00  0.00    +0.000 A 
ENDROOT
BRANCH   4   7
ATOM      7  C   UNL     1     -14.507   7.037  26.124  0.00  0.00    +0.000 C 
ATOM      8  C   UNL     1     -15.277   6.636  27.358  0.00  0.00    +0.000 C 
ATOM      9  O   UNL     1     -14.725   7.949  27.217  0.00  0.00    +0.000 OA
ENDBRANCH   4   7
TORSDOF 1
ENDMDL
MODEL 5
REMARK VINA RESULT:    -3.812      2.487      3.581
REMARK INTER + INTRA:          -3.769
REMARK INTER:                  -3.899
REMARK INTRA:                   0.129
REMARK UNBOUND:                 0.265
REMARK  Name = C:\Users\sofiya chavarekar\OneDrive\Assignment- Module 1\PROJECT(AI-based drug target identification for SDH-related rare disorders)\Data\Ligands\PDB\Ligand_0099.pdb
REMARK  1 active torsions:
REMARK  status: ('A' for Active; 'I' for Inactive)
REMARK    1  A    between atoms: C_4  and  C_5
REMARK                            x       y       z     vdW  Elec       q    Type
REMARK                         _______ _______ _______ _____ _____    ______ ____
ROOT
ATOM      1  C   UNL     1     -15.495   2.459  26.899  0.00  0.00    +0.000 A 
ATOM      2  C   UNL     1     -15.742   3.588  26.123  0.00  0.00    +0.000 A 
ATOM      3  C   UNL     1     -14.819   4.637  26.099  0.00  0.00    +0.000 A 
ATOM      4  C   UNL     1     -13.631   4.583  26.848  0.00  0.00    +0.000 A 
ATOM      5  C   UNL     1     -13.416   3.441  27.638  0.00  0.00    +0.000 A 
ATOM      6  C   UNL     1     -14.335   2.387  27.664  0.00  0.00    +0.000 A 
ENDROOT
BRANCH   4   7
ATOM      7  C   UNL     1     -12.594   5.672  26.765  0.00  0.00    +0.000 C 
ATOM      8  C   UNL     1     -11.310   5.477  25.998  0.00  0.00    +0.000 C 
ATOM      9  O   UNL     1     -12.373   6.283  25.479  0.00  0.00    +0.000 OA
ENDBRANCH   4   7
TORSDOF 1
ENDMDL
MODEL 6
REMARK VINA RESULT:    -3.808      6.258      7.863
REMARK INTER + INTRA:          -3.765
REMARK INTER:                  -3.842
REMARK INTRA:                   0.077
REMARK UNBOUND:                 0.265
REMARK  Name = C:\Users\sofiya chavarekar\OneDrive\Assignment- Module 1\PROJECT(AI-based drug target identification for SDH-related rare disorders)\Data\Ligands\PDB\Ligand_0099.pdb
REMARK  1 active torsions:
REMARK  status: ('A' for Active; 'I' for Inactive)
REMARK    1  A    between atoms: C_4  and  C_5
REMARK                            x       y       z     vdW  Elec       q    Type
REMARK                         _______ _______ _______ _____ _____    ______ ____
ROOT
ATOM      1  C   UNL     1     -11.163  -2.284  29.562  0.00  0.00    +0.000 A 
ATOM      2  C   UNL     1     -10.953  -1.565  28.389  0.00  0.00    +0.000 A 
ATOM      3  C   UNL     1     -11.835  -0.543  28.027  0.00  0.00    +0.000 A 
ATOM      4  C   UNL     1     -12.943  -0.216  28.825  0.00  0.00    +0.000 A 
ATOM      5  C   UNL     1     -13.143  -0.971  29.994  0.00  0.00    +0.000 A 
ATOM      6  C   UNL     1     -12.263  -1.992  30.363  0.00  0.00    +0.000 A 
ENDROOT
BRANCH   4   7
ATOM      7  C   UNL     1     -13.851   0.937  28.483  0.00  0.00    +0.000 C 
ATOM      8  C   UNL     1     -15.131   0.726  27.713  0.00  0.00    +0.000 C 
ATOM      9  O   UNL     1     -15.141   0.978  29.122  0.00  0.00    +0.000 OA
ENDBRANCH   4   7
TORSDOF 1
ENDMDL
MODEL 7
REMARK VINA RESULT:    -3.708      2.928      4.562
REMARK INTER + INTRA:          -3.660
REMARK INTER:                  -4.067
REMARK INTRA:                   0.407
REMARK UNBOUND:                 0.265
REMARK  Name = C:\Users\sofiya chavarekar\OneDrive\Assignment- Module 1\PROJECT(AI-based drug target identification for SDH-related rare disorders)\Data\Ligands\PDB\Ligand_0099.pdb
REMARK  1 active torsions:
REMARK  status: ('A' for Active; 'I' for Inactive)
REMARK    1  A    between atoms: C_4  and  C_5
REMARK                            x       y       z     vdW  Elec       q    Type
REMARK                         _______ _______ _______ _____ _____    ______ ____
ROOT
ATOM      1  C   UNL     1     -11.399   5.811  25.633  0.00  0.00    +0.000 A 
ATOM      2  C   UNL     1     -12.009   6.876  24.977  0.00  0.00    +0.000 A 
ATOM      3  C   UNL     1     -13.220   7.389  25.449  0.00  0.00    +0.000 A 
ATOM      4  C   UNL     1     -13.849   6.852  26.585  0.00  0.00    +0.000 A 
ATOM      5  C   UNL     1     -13.222   5.764  27.216  0.00  0.00    +0.000 A 
ATOM      6  C   UNL     1     -12.009   5.249  26.750  0.00  0.00    +0.000 A 
ENDROOT
BRANCH   4   7
ATOM      7  C   UNL     1     -15.111   7.450  27.147  0.00  0.00    +0.000 C 
ATOM      8  C   UNL     1     -15.981   8.366  26.321  0.00  0.00    +0.000 C 
ATOM      9  O   UNL     1     -16.362   7.012  26.584  0.00  0.00    +0.000 OA
ENDBRANCH   4   7
TORSDOF 1
ENDMDL
MODEL 8
REMARK VINA RESULT:    -3.627      2.770      4.163
REMARK INTER + INTRA:          -3.574
REMARK INTER:                  -3.686
REMARK INTRA:                   0.113
REMARK UNBOUND:                 0.265
REMARK  Name = C:\Users\sofiya chavarekar\OneDrive\Assignment- Module 1\PROJECT(AI-based drug target identification for SDH-related rare disorders)\Data\Ligands\PDB\Ligand_0099.pdb
REMARK  1 active torsions:
REMARK  status: ('A' for Active; 'I' for Inactive)
REMARK    1  A    between atoms: C_4  and  C_5
REMARK                            x       y       z     vdW  Elec       q    Type
REMARK                         _______ _______ _______ _____ _____    ______ ____
ROOT
ATOM      1  C   UNL     1     -16.153   9.072  27.650  0.00  0.00    +0.000 A 
ATOM      2  C   UNL     1     -16.258   7.684  27.647  0.00  0.00    +0.000 A 
ATOM      3  C   UNL     1     -15.354   6.915  26.910  0.00  0.00    +0.000 A 
ATOM      4  C   UNL     1     -14.325   7.512  26.161  0.00  0.00    +0.000 A 
ATOM      5  C   UNL     1     -14.254   8.916  26.166  0.00  0.00    +0.000 A 
ATOM      6  C   UNL     1     -15.154   9.690  26.904  0.00  0.00    +0.000 A 
ENDROOT
BRANCH   4   7
ATOM      7  C   UNL     1     -13.299   6.688  25.430  0.00  0.00    +0.000 C 
ATOM      8  C   UNL     1     -11.924   6.455  26.005  0.00  0.00    +0.000 C 
ATOM      9  O   UNL     1     -12.920   5.427  26.015  0.00  0.00    +0.000 OA
ENDBRANCH   4   7
TORSDOF 1
ENDMDL
MODEL 9
REMARK VINA RESULT:    -3.489      2.044      2.994
REMARK INTER + INTRA:          -3.427
REMARK INTER:                  -3.507
REMARK INTRA:                   0.080
REMARK UNBOUND:                 0.265
REMARK  Name = C:\Users\sofiya chavarekar\OneDrive\Assignment- Module 1\PROJECT(AI-based drug target identification for SDH-related rare disorders)\Data\Ligands\PDB\Ligand_0099.pdb
REMARK  1 active torsions:
REMARK  status: ('A' for Active; 'I' for Inactive)
REMARK    1  A    between atoms: C_4  and  C_5
REMARK                            x       y       z     vdW  Elec       q    Type
REMARK                         _______ _______ _______ _____ _____    ______ ____
ROOT
ATOM      1  C   UNL     1     -16.321   7.400  27.092  0.00  0.00    +0.000 A 
ATOM      2  C   UNL     1     -15.402   8.343  26.641  0.00  0.00    +0.000 A 
ATOM      3  C   UNL     1     -14.146   7.934  26.184  0.00  0.00    +0.000 A 
ATOM      4  C   UNL     1     -13.780   6.578  26.167  0.00  0.00    +0.000 A 
ATOM      5  C   UNL     1     -14.719   5.649  26.646  0.00  0.00    +0.000 A 
ATOM      6  C   UNL     1     -15.978   6.051  27.101  0.00  0.00    +0.000 A 
ENDROOT
BRANCH   4   7
ATOM      7  C   UNL     1     -12.460   6.123  25.602  0.00  0.00    +0.000 C 
ATOM      8  C   UNL     1     -11.194   6.179  26.420  0.00  0.00    +0.000 C 
ATOM      9  O   UNL     1     -11.866   4.941  26.170  0.00  0.00    +0.000 OA
ENDBRANCH   4   7
TORSDOF 1
ENDMDL
