MODEL 1
REMARK VINA RESULT:    -5.741      0.000      0.000
REMARK INTER + INTRA:          -6.825
REMARK INTER:                  -6.412
REMARK INTRA:                  -0.413
REMARK UNBOUND:                -0.413
REMARK  Name = C:\Users\sofiya chavarekar\OneDrive\Assignment- Module 1\PROJECT(AI-based drug target identification for SDH-related rare disorders)\Data\Ligands\PDB\Ligand_0079.pdb
REMARK  2 active torsions:
REMARK  status: ('A' for Active; 'I' for Inactive)
REMARK    1  A    between atoms: C_2  and  C_3
REMARK    2  A    between atoms: C_2  and  C_9
REMARK                            x       y       z     vdW  Elec       q    Type
REMARK                         _______ _______ _______ _____ _____    ______ ____
ROOT
ATOM      1  O   UNL     1     -14.061   5.161  28.721  0.00  0.00    +0.000 OA
ATOM      2  C   UNL     1     -13.952   4.717  27.586  0.00  0.00    +0.000 C 
ENDROOT
BRANCH   2   3
ATOM      3  C   UNL     1     -13.059   5.394  26.604  0.00  0.00    +0.000 A 
ATOM      4  C   UNL     1     -13.524   6.455  25.811  0.00  0.00    +0.000 A 
ATOM      5  C   UNL     1     -12.643   7.156  24.993  0.00  0.00    +0.000 A 
ATOM      6  C   UNL     1     -11.304   6.773  24.925  0.00  0.00    +0.000 A 
ATOM      7  C   UNL     1     -10.852   5.675  25.660  0.00  0.00    +0.000 A 
ATOM      8  C   UNL     1     -11.729   4.981  26.496  0.00  0.00    +0.000 A 
ENDBRANCH   2   3
BRANCH   2   9
ATOM      9  C   UNL     1     -14.714   3.501  27.182  0.00  0.00    +0.000 A 
ATOM     10  C   UNL     1     -14.483   2.260  27.796  0.00  0.00    +0.000 A 
ATOM     11  C   UNL     1     -15.282   1.162  27.479  0.00  0.00    +0.000 A 
ATOM     12  C   UNL     1     -16.285   1.287  26.520  0.00  0.00    +0.000 A 
ATOM     13  C   UNL     1     -16.476   2.503  25.862  0.00  0.00    +0.000 A 
ATOM     14  C   UNL     1     -15.690   3.610  26.188  0.00  0.00    +0.000 A 
ENDBRANCH   2   9
TORSDOF 2
ENDMDL
MODEL 2
REMARK VINA RESULT:    -5.737      0.084      5.278
REMARK INTER + INTRA:          -6.820
REMARK INTER:                  -6.402
REMARK INTRA:                  -0.418
REMARK UNBOUND:                -0.413
REMARK  Name = C:\Users\sofiya chavarekar\OneDrive\Assignment- Module 1\PROJECT(AI-based drug target identification for SDH-related rare disorders)\Data\Ligands\PDB\Ligand_0079.pdb
REMARK  2 active torsions:
REMARK  status: ('A' for Active; 'I' for Inactive)
REMARK    1  A    between atoms: C_2  and  C_3
REMARK    2  A    between atoms: C_2  and  C_9
REMARK                            x       y       z     vdW  Elec       q    Type
REMARK                         _______ _______ _______ _____ _____    ______ ____
ROOT
ATOM      1  O   UNL     1     -14.042   5.173  28.701  0.00  0.00    +0.000 OA
ATOM      2  C   UNL     1     -13.928   4.724  27.569  0.00  0.00    +0.000 C 
ENDROOT
BRANCH   2   3
ATOM      3  C   UNL     1     -14.710   3.522  27.163  0.00  0.00    +0.000 A 
ATOM      4  C   UNL     1     -14.517   2.283  27.792  0.00  0.00    +0.000 A 
ATOM      5  C   UNL     1     -15.344   1.205  27.486  0.00  0.00    +0.000 A 
ATOM      6  C   UNL     1     -16.336   1.345  26.516  0.00  0.00    +0.000 A 
ATOM      7  C   UNL     1     -16.486   2.557  25.838  0.00  0.00    +0.000 A 
ATOM      8  C   UNL     1     -15.671   3.645  26.156  0.00  0.00    +0.000 A 
ENDBRANCH   2   3
BRANCH   2   9
ATOM      9  C   UNL     1     -13.004   5.373  26.596  0.00  0.00    +0.000 A 
ATOM     10  C   UNL     1     -13.427   6.445  25.795  0.00  0.00    +0.000 A 
ATOM     11  C   UNL     1     -12.517   7.107  24.972  0.00  0.00    +0.000 A 
ATOM     12  C   UNL     1     -11.193   6.677  24.914  0.00  0.00    +0.000 A 
ATOM     13  C   UNL     1     -10.783   5.572  25.662  0.00  0.00    +0.000 A 
ATOM     14  C   UNL     1     -11.687   4.916  26.501  0.00  0.00    +0.000 A 
ENDBRANCH   2   9
TORSDOF 2
ENDMDL
MODEL 3
REMARK VINA RESULT:    -5.305      1.334      2.275
REMARK INTER + INTRA:          -6.338
REMARK INTER:                  -5.875
REMARK INTRA:                  -0.463
REMARK UNBOUND:                -0.413
REMARK  Name = C:\Users\sofiya chavarekar\OneDrive\Assignment- Module 1\PROJECT(AI-based drug target identification for SDH-related rare disorders)\Data\Ligands\PDB\Ligand_0079.pdb
REMARK  2 active torsions:
REMARK  status: ('A' for Active; 'I' for Inactive)
REMARK    1  A    between atoms: C_2  and  C_3
REMARK    2  A    between atoms: C_2  and  C_9
REMARK                            x       y       z     vdW  Elec       q    Type
REMARK                         _______ _______ _______ _____ _____    ______ ____
ROOT
ATOM      1  O   UNL     1     -15.249   7.019  26.253  0.00  0.00    +0.000 OA
ATOM      2  C   UNL     1     -14.489   6.071  26.398  0.00  0.00    +0.000 C 
ENDROOT
BRANCH   2   3
ATOM      3  C   UNL     1     -13.073   6.176  25.947  0.00  0.00    +0.000 A 
ATOM      4  C   UNL     1     -12.085   5.316  26.450  0.00  0.00    +0.000 A 
ATOM      5  C   UNL     1     -10.796   5.346  25.924  0.00  0.00    +0.000 A 
ATOM      6  C   UNL     1     -10.474   6.267  24.928  0.00  0.00    +0.000 A 
ATOM      7  C   UNL     1     -11.437   7.171  24.473  0.00  0.00    +0.000 A 
ATOM      8  C   UNL     1     -12.735   7.131  24.985  0.00  0.00    +0.000 A 
ENDBRANCH   2   3
BRANCH   2   9
ATOM      9  C   UNL     1     -14.979   4.808  27.022  0.00  0.00    +0.000 A 
ATOM     10  C   UNL     1     -15.364   3.711  26.237  0.00  0.00    +0.000 A 
ATOM     11  C   UNL     1     -15.715   2.505  26.843  0.00  0.00    +0.000 A 
ATOM     12  C   UNL     1     -15.722   2.402  28.232  0.00  0.00    +0.000 A 
ATOM     13  C   UNL     1     -15.399   3.510  29.017  0.00  0.00    +0.000 A 
ATOM     14  C   UNL     1     -15.031   4.715  28.415  0.00  0.00    +0.000 A 
ENDBRANCH   2   9
TORSDOF 2
ENDMDL
MODEL 4
REMARK VINA RESULT:    -5.262      2.408      5.232
REMARK INTER + INTRA:          -6.291
REMARK INTER:                  -5.844
REMARK INTRA:                  -0.446
REMARK UNBOUND:                -0.413
REMARK  Name = C:\Users\sofiya chavarekar\OneDrive\Assignment- Module 1\PROJECT(AI-based drug target identification for SDH-related rare disorders)\Data\Ligands\PDB\Ligand_0079.pdb
REMARK  2 active torsions:
REMARK  status: ('A' for Active; 'I' for Inactive)
REMARK    1  A    between atoms: C_2  and  C_3
REMARK    2  A    between atoms: C_2  and  C_9
REMARK                            x       y       z     vdW  Elec       q    Type
REMARK                         _______ _______ _______ _____ _____    ______ ____
ROOT
ATOM      1  O   UNL     1     -15.332   3.696  25.811  0.00  0.00    +0.000 OA
ATOM      2  C   UNL     1     -14.994   4.674  26.464  0.00  0.00    +0.000 C 
ENDROOT
BRANCH   2   3
ATOM      3  C   UNL     1     -15.856   5.160  27.577  0.00  0.00    +0.000 A 
ATOM      4  C   UNL     1     -15.679   4.696  28.890  0.00  0.00    +0.000 A 
ATOM      5  C   UNL     1     -16.408   5.254  29.935  0.00  0.00    +0.000 A 
ATOM      6  C   UNL     1     -17.353   6.246  29.672  0.00  0.00    +0.000 A 
ATOM      7  C   UNL     1     -17.582   6.662  28.358  0.00  0.00    +0.000 A 
ATOM      8  C   UNL     1     -16.839   6.117  27.309  0.00  0.00    +0.000 A 
ENDBRANCH   2   3
BRANCH   2   9
ATOM      9  C   UNL     1     -13.723   5.384  26.144  0.00  0.00    +0.000 A 
ATOM     10  C   UNL     1     -12.486   4.902  26.601  0.00  0.00    +0.000 A 
ATOM     11  C   UNL     1     -11.302   5.519  26.199  0.00  0.00    +0.000 A 
ATOM     12  C   UNL     1     -11.349   6.642  25.375  0.00  0.00    +0.000 A 
ATOM     13  C   UNL     1     -12.580   7.162  24.971  0.00  0.00    +0.000 A 
ATOM     14  C   UNL     1     -13.767   6.537  25.356  0.00  0.00    +0.000 A 
ENDBRANCH   2   9
TORSDOF 2
ENDMDL
MODEL 5
REMARK VINA RESULT:    -4.899      2.647      5.380
REMARK INTER + INTRA:          -5.885
REMARK INTER:                  -5.416
REMARK INTRA:                  -0.468
REMARK UNBOUND:                -0.413
REMARK  Name = C:\Users\sofiya chavarekar\OneDrive\Assignment- Module 1\PROJECT(AI-based drug target identification for SDH-related rare disorders)\Data\Ligands\PDB\Ligand_0079.pdb
REMARK  2 active torsions:
REMARK  status: ('A' for Active; 'I' for Inactive)
REMARK    1  A    between atoms: C_2  and  C_3
REMARK    2  A    between atoms: C_2  and  C_9
REMARK                            x       y       z     vdW  Elec       q    Type
REMARK                         _______ _______ _______ _____ _____    ______ ____
ROOT
ATOM      1  O   UNL     1     -13.584   6.312  24.976  0.00  0.00    +0.000 OA
ATOM      2  C   UNL     1     -14.355   6.307  25.926  0.00  0.00    +0.000 C 
ENDROOT
BRANCH   2   3
ATOM      3  C   UNL     1     -14.594   5.047  26.684  0.00  0.00    +0.000 A 
ATOM      4  C   UNL     1     -15.278   3.968  26.102  0.00  0.00    +0.000 A 
ATOM      5  C   UNL     1     -15.380   2.756  26.780  0.00  0.00    +0.000 A 
ATOM      6  C   UNL     1     -14.843   2.629  28.061  0.00  0.00    +0.000 A 
ATOM      7  C   UNL     1     -14.222   3.722  28.671  0.00  0.00    +0.000 A 
ATOM      8  C   UNL     1     -14.102   4.933  27.986  0.00  0.00    +0.000 A 
ENDBRANCH   2   3
BRANCH   2   9
ATOM      9  C   UNL     1     -15.059   7.559  26.325  0.00  0.00    +0.000 A 
ATOM     10  C   UNL     1     -16.366   7.528  26.836  0.00  0.00    +0.000 A 
ATOM     11  C   UNL     1     -16.963   8.697  27.304  0.00  0.00    +0.000 A 
ATOM     12  C   UNL     1     -16.277   9.908  27.225  0.00  0.00    +0.000 A 
ATOM     13  C   UNL     1     -15.001   9.952  26.659  0.00  0.00    +0.000 A 
ATOM     14  C   UNL     1     -14.392   8.781  26.205  0.00  0.00    +0.000 A 
ENDBRANCH   2   9
TORSDOF 2
ENDMDL
MODEL 6
REMARK VINA RESULT:    -4.895      2.600      3.684
REMARK INTER + INTRA:          -5.880
REMARK INTER:                  -5.415
REMARK INTRA:                  -0.465
REMARK UNBOUND:                -0.413
REMARK  Name = C:\Users\sofiya chavarekar\OneDrive\Assignment- Module 1\PROJECT(AI-based drug target identification for SDH-related rare disorders)\Data\Ligands\PDB\Ligand_0079.pdb
REMARK  2 active torsions:
REMARK  status: ('A' for Active; 'I' for Inactive)
REMARK    1  A    between atoms: C_2  and  C_3
REMARK    2  A    between atoms: C_2  and  C_9
REMARK                            x       y       z     vdW  Elec       q    Type
REMARK                         _______ _______ _______ _____ _____    ______ ____
ROOT
ATOM      1  O   UNL     1     -13.451   6.335  24.954  0.00  0.00    +0.000 OA
ATOM      2  C   UNL     1     -14.206   6.300  25.916  0.00  0.00    +0.000 C 
ENDROOT
BRANCH   2   3
ATOM      3  C   UNL     1     -14.898   7.540  26.365  0.00  0.00    +0.000 A 
ATOM      4  C   UNL     1     -14.309   8.803  26.195  0.00  0.00    +0.000 A 
ATOM      5  C   UNL     1     -15.024   9.957  26.505  0.00  0.00    +0.000 A 
ATOM      6  C   UNL     1     -16.312   9.856  27.031  0.00  0.00    +0.000 A 
ATOM      7  C   UNL     1     -16.875   8.600  27.266  0.00  0.00    +0.000 A 
ATOM      8  C   UNL     1     -16.169   7.441  26.939  0.00  0.00    +0.000 A 
ENDBRANCH   2   3
BRANCH   2   9
ATOM      9  C   UNL     1     -14.433   5.018  26.643  0.00  0.00    +0.000 A 
ATOM     10  C   UNL     1     -13.924   4.814  27.935  0.00  0.00    +0.000 A 
ATOM     11  C   UNL     1     -14.239   3.652  28.637  0.00  0.00    +0.000 A 
ATOM     12  C   UNL     1     -15.029   2.671  28.039  0.00  0.00    +0.000 A 
ATOM     13  C   UNL     1     -15.485   2.843  26.731  0.00  0.00    +0.000 A 
ATOM     14  C   UNL     1     -15.186   4.013  26.030  0.00  0.00    +0.000 A 
ENDBRANCH   2   9
TORSDOF 2
ENDMDL
MODEL 7
REMARK VINA RESULT:    -4.754      3.002      4.106
REMARK INTER + INTRA:          -5.723
REMARK INTER:                  -5.342
REMARK INTRA:                  -0.380
REMARK UNBOUND:                -0.413
REMARK  Name = C:\Users\sofiya chavarekar\OneDrive\Assignment- Module 1\PROJECT(AI-based drug target identification for SDH-related rare disorders)\Data\Ligands\PDB\Ligand_0079.pdb
REMARK  2 active torsions:
REMARK  status: ('A' for Active; 'I' for Inactive)
REMARK    1  A    between atoms: C_2  and  C_3
REMARK    2  A    between atoms: C_2  and  C_9
REMARK                            x       y       z     vdW  Elec       q    Type
REMARK                         _______ _______ _______ _____ _____    ______ ____
ROOT
ATOM      1  O   UNL     1     -16.054   4.084  26.480  0.00  0.00    +0.000 OA
ATOM      2  C   UNL     1     -15.632   5.182  26.818  0.00  0.00    +0.000 C 
ENDROOT
BRANCH   2   3
ATOM      3  C   UNL     1     -14.259   5.606  26.424  0.00  0.00    +0.000 A 
ATOM      4  C   UNL     1     -13.130   4.878  26.829  0.00  0.00    +0.000 A 
ATOM      5  C   UNL     1     -11.868   5.216  26.347  0.00  0.00    +0.000 A 
ATOM      6  C   UNL     1     -11.720   6.311  25.496  0.00  0.00    +0.000 A 
ATOM      7  C   UNL     1     -12.833   7.079  25.145  0.00  0.00    +0.000 A 
ATOM      8  C   UNL     1     -14.102   6.732  25.612  0.00  0.00    +0.000 A 
ENDBRANCH   2   3
BRANCH   2   9
ATOM      9  C   UNL     1     -16.488   6.096  27.626  0.00  0.00    +0.000 A 
ATOM     10  C   UNL     1     -17.313   7.053  27.014  0.00  0.00    +0.000 A 
ATOM     11  C   UNL     1     -18.185   7.821  27.783  0.00  0.00    +0.000 A 
ATOM     12  C   UNL     1     -18.209   7.669  29.169  0.00  0.00    +0.000 A 
ATOM     13  C   UNL     1     -17.345   6.763  29.787  0.00  0.00    +0.000 A 
ATOM     14  C   UNL     1     -16.482   5.978  29.019  0.00  0.00    +0.000 A 
ENDBRANCH   2   9
TORSDOF 2
ENDMDL
MODEL 8
REMARK VINA RESULT:    -4.687      1.276      5.102
REMARK INTER + INTRA:          -5.648
REMARK INTER:                  -5.128
REMARK INTRA:                  -0.520
REMARK UNBOUND:                -0.413
REMARK  Name = C:\Users\sofiya chavarekar\OneDrive\Assignment- Module 1\PROJECT(AI-based drug target identification for SDH-related rare disorders)\Data\Ligands\PDB\Ligand_0079.pdb
REMARK  2 active torsions:
REMARK  status: ('A' for Active; 'I' for Inactive)
REMARK    1  A    between atoms: C_2  and  C_3
REMARK    2  A    between atoms: C_2  and  C_9
REMARK                            x       y       z     vdW  Elec       q    Type
REMARK                         _______ _______ _______ _____ _____    ______ ____
ROOT
ATOM      1  O   UNL     1     -14.237   4.332  29.105  0.00  0.00    +0.000 OA
ATOM      2  C   UNL     1     -14.595   4.505  27.948  0.00  0.00    +0.000 C 
ENDROOT
BRANCH   2   3
ATOM      3  C   UNL     1     -15.808   3.812  27.432  0.00  0.00    +0.000 A 
ATOM      4  C   UNL     1     -17.053   3.959  28.064  0.00  0.00    +0.000 A 
ATOM      5  C   UNL     1     -18.197   3.407  27.495  0.00  0.00    +0.000 A 
ATOM      6  C   UNL     1     -18.099   2.665  26.319  0.00  0.00    +0.000 A 
ATOM      7  C   UNL     1     -16.852   2.458  25.724  0.00  0.00    +0.000 A 
ATOM      8  C   UNL     1     -15.705   3.025  26.282  0.00  0.00    +0.000 A 
ENDBRANCH   2   3
BRANCH   2   9
ATOM      9  C   UNL     1     -13.815   5.405  27.051  0.00  0.00    +0.000 A 
ATOM     10  C   UNL     1     -12.509   5.081  26.651  0.00  0.00    +0.000 A 
ATOM     11  C   UNL     1     -11.841   5.883  25.727  0.00  0.00    +0.000 A 
ATOM     12  C   UNL     1     -12.455   7.031  25.230  0.00  0.00    +0.000 A 
ATOM     13  C   UNL     1     -13.730   7.389  25.673  0.00  0.00    +0.000 A 
ATOM     14  C   UNL     1     -14.410   6.581  26.586  0.00  0.00    +0.000 A 
ENDBRANCH   2   9
TORSDOF 2
ENDMDL
MODEL 9
REMARK VINA RESULT:    -4.559      6.359      9.825
REMARK INTER + INTRA:          -5.505
REMARK INTER:                  -5.057
REMARK INTRA:                  -0.447
REMARK UNBOUND:                -0.413
REMARK  Name = C:\Users\sofiya chavarekar\OneDrive\Assignment- Module 1\PROJECT(AI-based drug target identification for SDH-related rare disorders)\Data\Ligands\PDB\Ligand_0079.pdb
REMARK  2 active torsions:
REMARK  status: ('A' for Active; 'I' for Inactive)
REMARK    1  A    between atoms: C_2  and  C_3
REMARK    2  A    between atoms: C_2  and  C_9
REMARK                            x       y       z     vdW  Elec       q    Type
REMARK                         _______ _______ _______ _____ _____    ______ ____
ROOT
ATOM      1  O   UNL     1     -19.781   0.156  20.790  0.00  0.00    +0.000 OA
ATOM      2  C   UNL     1     -19.513  -0.450  21.819  0.00  0.00    +0.000 C 
ENDROOT
BRANCH   2   3
ATOM      3  C   UNL     1     -19.481  -1.939  21.819  0.00  0.00    +0.000 A 
ATOM      4  C   UNL     1     -18.826  -2.652  22.836  0.00  0.00    +0.000 A 
ATOM      5  C   UNL     1     -18.915  -4.040  22.888  0.00  0.00    +0.000 A 
ATOM      6  C   UNL     1     -19.617  -4.729  21.899  0.00  0.00    +0.000 A 
ATOM      7  C   UNL     1     -20.212  -4.028  20.847  0.00  0.00    +0.000 A 
ATOM      8  C   UNL     1     -20.141  -2.634  20.802  0.00  0.00    +0.000 A 
ENDBRANCH   2   3
BRANCH   2   9
ATOM      9  C   UNL     1     -19.221   0.300  23.074  0.00  0.00    +0.000 A 
ATOM     10  C   UNL     1     -20.228   0.564  24.015  0.00  0.00    +0.000 A 
ATOM     11  C   UNL     1     -19.911   1.170  25.229  0.00  0.00    +0.000 A 
ATOM     12  C   UNL     1     -18.597   1.552  25.493  0.00  0.00    +0.000 A 
ATOM     13  C   UNL     1     -17.604   1.348  24.534  0.00  0.00    +0.000 A 
ATOM     14  C   UNL     1     -17.913   0.725  23.323  0.00  0.00    +0.000 A 
ENDBRANCH   2   9
TORSDOF 2
ENDMDL
