MODEL 1
REMARK VINA RESULT:    -4.144      0.000      0.000
REMARK INTER + INTRA:          -4.144
REMARK INTER:                  -4.144
REMARK INTRA:                   0.000
REMARK UNBOUND:                 0.000
REMARK  Name = C:\Users\sofiya chavarekar\OneDrive\Assignment- Module 1\PROJECT(AI-based drug target identification for SDH-related rare disorders)\Data\Ligands\PDB\Ligand_0078.pdb
REMARK  0 active torsions:
REMARK  status: ('A' for Active; 'I' for Inactive)
REMARK                            x       y       z     vdW  Elec       q    Type
REMARK                         _______ _______ _______ _____ _____    ______ ____
ROOT
ATOM      1  O   UNL     1     -10.463   7.397  23.825  0.00  0.00    +0.000 OA
ATOM      2  C   UNL     1     -11.178   6.820  24.633  0.00  0.00    +0.000 C 
ATOM      3  C   UNL     1     -12.586   7.215  24.830  0.00  0.00    +0.000 C 
ATOM      4  C   UNL     1     -13.367   6.584  25.713  0.00  0.00    +0.000 C 
ATOM      5  C   UNL     1     -12.853   5.466  26.530  0.00  0.00    +0.000 C 
ATOM      6  O   UNL     1     -13.568   4.890  27.338  0.00  0.00    +0.000 OA
ATOM      7  C   UNL     1     -11.445   5.071  26.333  0.00  0.00    +0.000 C 
ATOM      8  C   UNL     1     -10.664   5.702  25.450  0.00  0.00    +0.000 C 
ENDROOT
TORSDOF 0
ENDMDL
MODEL 2
REMARK VINA RESULT:    -4.140      0.030      1.784
REMARK INTER + INTRA:          -4.140
REMARK INTER:                  -4.140
REMARK INTRA:                   0.000
REMARK UNBOUND:                 0.000
REMARK  Name = C:\Users\sofiya chavarekar\OneDrive\Assignment- Module 1\PROJECT(AI-based drug target identification for SDH-related rare disorders)\Data\Ligands\PDB\Ligand_0078.pdb
REMARK  0 active torsions:
REMARK  status: ('A' for Active; 'I' for Inactive)
REMARK                            x       y       z     vdW  Elec       q    Type
REMARK                         _______ _______ _______ _____ _____    ______ ____
ROOT
ATOM      1  O   UNL     1     -10.499   7.417  23.828  0.00  0.00    +0.000 OA
ATOM      2  C   UNL     1     -11.207   6.836  24.638  0.00  0.00    +0.000 C 
ATOM      3  C   UNL     1     -10.685   5.723  25.455  0.00  0.00    +0.000 C 
ATOM      4  C   UNL     1     -11.460   5.090  26.341  0.00  0.00    +0.000 C 
ATOM      5  C   UNL     1     -12.871   5.476  26.541  0.00  0.00    +0.000 C 
ATOM      6  O   UNL     1     -13.579   4.895  27.351  0.00  0.00    +0.000 OA
ATOM      7  C   UNL     1     -13.393   6.588  25.724  0.00  0.00    +0.000 C 
ATOM      8  C   UNL     1     -12.619   7.222  24.837  0.00  0.00    +0.000 C 
ENDROOT
TORSDOF 0
ENDMDL
MODEL 3
REMARK VINA RESULT:    -4.078      0.229      3.168
REMARK INTER + INTRA:          -4.078
REMARK INTER:                  -4.078
REMARK INTRA:                   0.000
REMARK UNBOUND:                 0.000
REMARK  Name = C:\Users\sofiya chavarekar\OneDrive\Assignment- Module 1\PROJECT(AI-based drug target identification for SDH-related rare disorders)\Data\Ligands\PDB\Ligand_0078.pdb
REMARK  0 active torsions:
REMARK  status: ('A' for Active; 'I' for Inactive)
REMARK                            x       y       z     vdW  Elec       q    Type
REMARK                         _______ _______ _______ _____ _____    ______ ____
ROOT
ATOM      1  O   UNL     1     -13.841   5.162  27.267  0.00  0.00    +0.000 OA
ATOM      2  C   UNL     1     -13.055   5.668  26.478  0.00  0.00    +0.000 C 
ATOM      3  C   UNL     1     -13.469   6.759  25.575  0.00  0.00    +0.000 C 
ATOM      4  C   UNL     1     -12.609   7.312  24.714  0.00  0.00    +0.000 C 
ATOM      5  C   UNL     1     -11.208   6.853  24.628  0.00  0.00    +0.000 C 
ATOM      6  O   UNL     1     -10.421   7.358  23.840  0.00  0.00    +0.000 OA
ATOM      7  C   UNL     1     -10.794   5.761  25.531  0.00  0.00    +0.000 C 
ATOM      8  C   UNL     1     -11.654   5.209  26.393  0.00  0.00    +0.000 C 
ENDROOT
TORSDOF 0
ENDMDL
MODEL 4
REMARK VINA RESULT:    -3.960      1.626      2.380
REMARK INTER + INTRA:          -3.960
REMARK INTER:                  -3.960
REMARK INTRA:                   0.000
REMARK UNBOUND:                 0.000
REMARK  Name = C:\Users\sofiya chavarekar\OneDrive\Assignment- Module 1\PROJECT(AI-based drug target identification for SDH-related rare disorders)\Data\Ligands\PDB\Ligand_0078.pdb
REMARK  0 active torsions:
REMARK  status: ('A' for Active; 'I' for Inactive)
REMARK                            x       y       z     vdW  Elec       q    Type
REMARK                         _______ _______ _______ _____ _____    ______ ____
ROOT
ATOM      1  O   UNL     1      -9.829   4.758  25.830  0.00  0.00    +0.000 OA
ATOM      2  C   UNL     1     -10.927   5.298  25.826  0.00  0.00    +0.000 C 
ATOM      3  C   UNL     1     -12.052   4.751  26.609  0.00  0.00    +0.000 C 
ATOM      4  C   UNL     1     -13.252   5.341  26.605  0.00  0.00    +0.000 C 
ATOM      5  C   UNL     1     -13.502   6.565  25.817  0.00  0.00    +0.000 C 
ATOM      6  O   UNL     1     -14.600   7.104  25.813  0.00  0.00    +0.000 OA
ATOM      7  C   UNL     1     -12.377   7.111  25.034  0.00  0.00    +0.000 C 
ATOM      8  C   UNL     1     -11.177   6.521  25.038  0.00  0.00    +0.000 C 
ENDROOT
TORSDOF 0
ENDMDL
MODEL 5
REMARK VINA RESULT:    -3.912      1.709      2.877
REMARK INTER + INTRA:          -3.912
REMARK INTER:                  -3.912
REMARK INTRA:                   0.000
REMARK UNBOUND:                 0.000
REMARK  Name = C:\Users\sofiya chavarekar\OneDrive\Assignment- Module 1\PROJECT(AI-based drug target identification for SDH-related rare disorders)\Data\Ligands\PDB\Ligand_0078.pdb
REMARK  0 active torsions:
REMARK  status: ('A' for Active; 'I' for Inactive)
REMARK                            x       y       z     vdW  Elec       q    Type
REMARK                         _______ _______ _______ _____ _____    ______ ____
ROOT
ATOM      1  O   UNL     1     -15.031   7.061  25.946  0.00  0.00    +0.000 OA
ATOM      2  C   UNL     1     -13.919   6.552  25.971  0.00  0.00    +0.000 C 
ATOM      3  C   UNL     1     -12.773   7.178  25.283  0.00  0.00    +0.000 C 
ATOM      4  C   UNL     1     -11.558   6.622  25.311  0.00  0.00    +0.000 C 
ATOM      5  C   UNL     1     -11.310   5.358  26.031  0.00  0.00    +0.000 C 
ATOM      6  O   UNL     1     -10.198   4.849  26.057  0.00  0.00    +0.000 OA
ATOM      7  C   UNL     1     -12.455   4.732  26.720  0.00  0.00    +0.000 C 
ATOM      8  C   UNL     1     -13.671   5.288  26.692  0.00  0.00    +0.000 C 
ENDROOT
TORSDOF 0
ENDMDL
MODEL 6
REMARK VINA RESULT:    -3.879      1.745      2.306
REMARK INTER + INTRA:          -3.879
REMARK INTER:                  -3.879
REMARK INTRA:                   0.000
REMARK UNBOUND:                 0.000
REMARK  Name = C:\Users\sofiya chavarekar\OneDrive\Assignment- Module 1\PROJECT(AI-based drug target identification for SDH-related rare disorders)\Data\Ligands\PDB\Ligand_0078.pdb
REMARK  0 active torsions:
REMARK  status: ('A' for Active; 'I' for Inactive)
REMARK                            x       y       z     vdW  Elec       q    Type
REMARK                         _______ _______ _______ _____ _____    ______ ____
ROOT
ATOM      1  O   UNL     1      -9.740   4.542  25.960  0.00  0.00    +0.000 OA
ATOM      2  C   UNL     1     -10.778   5.185  25.888  0.00  0.00    +0.000 C 
ATOM      3  C   UNL     1     -10.880   6.383  25.033  0.00  0.00    +0.000 C 
ATOM      4  C   UNL     1     -12.015   7.085  24.955  0.00  0.00    +0.000 C 
ATOM      5  C   UNL     1     -13.214   6.692  25.721  0.00  0.00    +0.000 C 
ATOM      6  O   UNL     1     -14.252   7.335  25.649  0.00  0.00    +0.000 OA
ATOM      7  C   UNL     1     -13.112   5.493  26.575  0.00  0.00    +0.000 C 
ATOM      8  C   UNL     1     -11.977   4.791  26.654  0.00  0.00    +0.000 C 
ENDROOT
TORSDOF 0
ENDMDL
MODEL 7
REMARK VINA RESULT:    -3.639      1.322      1.586
REMARK INTER + INTRA:          -3.639
REMARK INTER:                  -3.639
REMARK INTRA:                   0.000
REMARK UNBOUND:                 0.000
REMARK  Name = C:\Users\sofiya chavarekar\OneDrive\Assignment- Module 1\PROJECT(AI-based drug target identification for SDH-related rare disorders)\Data\Ligands\PDB\Ligand_0078.pdb
REMARK  0 active torsions:
REMARK  status: ('A' for Active; 'I' for Inactive)
REMARK                            x       y       z     vdW  Elec       q    Type
REMARK                         _______ _______ _______ _____ _____    ______ ____
ROOT
ATOM      1  O   UNL     1     -10.915   6.776  25.132  0.00  0.00    +0.000 OA
ATOM      2  C   UNL     1     -11.995   6.422  25.584  0.00  0.00    +0.000 C 
ATOM      3  C   UNL     1     -13.213   7.231  25.383  0.00  0.00    +0.000 C 
ATOM      4  C   UNL     1     -14.393   6.844  25.876  0.00  0.00    +0.000 C 
ATOM      5  C   UNL     1     -14.529   5.590  26.644  0.00  0.00    +0.000 C 
ATOM      6  O   UNL     1     -15.609   5.236  27.095  0.00  0.00    +0.000 OA
ATOM      7  C   UNL     1     -13.311   4.781  26.845  0.00  0.00    +0.000 C 
ATOM      8  C   UNL     1     -12.131   5.168  26.351  0.00  0.00    +0.000 C 
ENDROOT
TORSDOF 0
ENDMDL
MODEL 8
REMARK VINA RESULT:    -3.587      1.999      2.929
REMARK INTER + INTRA:          -3.587
REMARK INTER:                  -3.587
REMARK INTRA:                   0.000
REMARK UNBOUND:                 0.000
REMARK  Name = C:\Users\sofiya chavarekar\OneDrive\Assignment- Module 1\PROJECT(AI-based drug target identification for SDH-related rare disorders)\Data\Ligands\PDB\Ligand_0078.pdb
REMARK  0 active torsions:
REMARK  status: ('A' for Active; 'I' for Inactive)
REMARK                            x       y       z     vdW  Elec       q    Type
REMARK                         _______ _______ _______ _____ _____    ______ ____
ROOT
ATOM      1  O   UNL     1     -14.032   8.468  25.872  0.00  0.00    +0.000 OA
ATOM      2  C   UNL     1     -13.860   7.296  26.175  0.00  0.00    +0.000 C 
ATOM      3  C   UNL     1     -12.534   6.659  26.052  0.00  0.00    +0.000 C 
ATOM      4  C   UNL     1     -12.346   5.377  26.384  0.00  0.00    +0.000 C 
ATOM      5  C   UNL     1     -13.457   4.545  26.888  0.00  0.00    +0.000 C 
ATOM      6  O   UNL     1     -13.285   3.372  27.191  0.00  0.00    +0.000 OA
ATOM      7  C   UNL     1     -14.782   5.182  27.011  0.00  0.00    +0.000 C 
ATOM      8  C   UNL     1     -14.971   6.463  26.679  0.00  0.00    +0.000 C 
ENDROOT
TORSDOF 0
ENDMDL
