MODEL 1
REMARK VINA RESULT:    -4.723      0.000      0.000
REMARK INTER + INTRA:          -5.544
REMARK INTER:                  -5.414
REMARK INTRA:                  -0.130
REMARK UNBOUND:                -0.130
REMARK  Name = C:\Users\sofiya chavarekar\OneDrive\Assignment- Module 1\PROJECT(AI-based drug target identification for SDH-related rare disorders)\Data\Ligands\PDB\Ligand_0083.pdb
REMARK  3 active torsions:
REMARK  status: ('A' for Active; 'I' for Inactive)
REMARK    1  A    between atoms: C_2  and  O_3
REMARK    2  A    between atoms: C_2  and  C_4
REMARK    3  A    between atoms: C_5  and  C_6
REMARK                            x       y       z     vdW  Elec       q    Type
REMARK                         _______ _______ _______ _____ _____    ______ ____
ROOT
ATOM      1  C   UNL     1     -15.806   8.238  26.244  0.00  0.00    +0.000 C 
ATOM      2  C   UNL     1     -15.266   7.021  26.067  0.00  0.00    +0.000 C 
ENDROOT
BRANCH   2   3
ATOM      3  C   UNL     1     -13.838   6.707  26.025  0.00  0.00    +0.000 A 
ATOM      4  C   UNL     1     -13.053   7.130  24.946  0.00  0.00    +0.000 A 
ATOM      5  C   UNL     1     -11.696   6.805  24.894  0.00  0.00    +0.000 A 
ATOM      6  C   UNL     1     -11.117   6.062  25.923  0.00  0.00    +0.000 A 
ATOM      7  C   UNL     1     -11.890   5.654  27.009  0.00  0.00    +0.000 A 
ATOM      8  C   UNL     1     -13.247   5.977  27.062  0.00  0.00    +0.000 A 
ENDBRANCH   2   3
BRANCH   1  10
ATOM      9  O   UNL     1     -14.606  10.185  25.493  0.00  0.00    +0.000 OA
ATOM     10  C   UNL     1     -15.052   9.503  26.396  0.00  0.00    +0.000 C 
BRANCH  10  11
ATOM     11  O   UNL     1     -14.930   9.846  27.698  0.00  0.00    +0.000 OA
ATOM     12  H   UNL     1     -14.031  10.080  27.989  0.00  0.00    +0.000 HD
ENDBRANCH  10  11
ENDBRANCH   1  10
TORSDOF 3
ENDMDL
MODEL 2
REMARK VINA RESULT:    -4.683      3.358      4.107
REMARK INTER + INTRA:          -5.498
REMARK INTER:                  -5.392
REMARK INTRA:                  -0.106
REMARK UNBOUND:                -0.130
REMARK  Name = C:\Users\sofiya chavarekar\OneDrive\Assignment- Module 1\PROJECT(AI-based drug target identification for SDH-related rare disorders)\Data\Ligands\PDB\Ligand_0083.pdb
REMARK  3 active torsions:
REMARK  status: ('A' for Active; 'I' for Inactive)
REMARK    1  A    between atoms: C_2  and  O_3
REMARK    2  A    between atoms: C_2  and  C_4
REMARK    3  A    between atoms: C_5  and  C_6
REMARK                            x       y       z     vdW  Elec       q    Type
REMARK                         _______ _______ _______ _____ _____    ______ ____
ROOT
ATOM      1  C   UNL     1     -15.696   4.730  27.216  0.00  0.00    +0.000 C 
ATOM      2  C   UNL     1     -15.022   5.890  27.153  0.00  0.00    +0.000 C 
ENDROOT
BRANCH   2   3
ATOM      3  C   UNL     1     -13.747   6.114  26.472  0.00  0.00    +0.000 A 
ATOM      4  C   UNL     1     -12.587   5.469  26.916  0.00  0.00    +0.000 A 
ATOM      5  C   UNL     1     -11.365   5.706  26.283  0.00  0.00    +0.000 A 
ATOM      6  C   UNL     1     -11.299   6.582  25.200  0.00  0.00    +0.000 A 
ATOM      7  C   UNL     1     -12.455   7.212  24.741  0.00  0.00    +0.000 A 
ATOM      8  C   UNL     1     -13.677   6.978  25.374  0.00  0.00    +0.000 A 
ENDBRANCH   2   3
BRANCH   1  10
ATOM      9  O   UNL     1     -14.617   2.578  27.204  0.00  0.00    +0.000 OA
ATOM     10  C   UNL     1     -15.254   3.443  26.633  0.00  0.00    +0.000 C 
BRANCH  10  11
ATOM     11  O   UNL     1     -15.672   3.316  25.354  0.00  0.00    +0.000 OA
ATOM     12  H   UNL     1     -15.614   4.121  24.809  0.00  0.00    +0.000 HD
ENDBRANCH  10  11
ENDBRANCH   1  10
TORSDOF 3
ENDMDL
MODEL 3
REMARK VINA RESULT:    -4.677      2.517      4.168
REMARK INTER + INTRA:          -5.490
REMARK INTER:                  -5.303
REMARK INTRA:                  -0.187
REMARK UNBOUND:                -0.130
REMARK  Name = C:\Users\sofiya chavarekar\OneDrive\Assignment- Module 1\PROJECT(AI-based drug target identification for SDH-related rare disorders)\Data\Ligands\PDB\Ligand_0083.pdb
REMARK  3 active torsions:
REMARK  status: ('A' for Active; 'I' for Inactive)
REMARK    1  A    between atoms: C_2  and  O_3
REMARK    2  A    between atoms: C_2  and  C_4
REMARK    3  A    between atoms: C_5  and  C_6
REMARK                            x       y       z     vdW  Elec       q    Type
REMARK                         _______ _______ _______ _____ _____    ______ ____
ROOT
ATOM      1  C   UNL     1     -12.172   6.066  25.928  0.00  0.00    +0.000 C 
ATOM      2  C   UNL     1     -12.545   4.938  26.554  0.00  0.00    +0.000 C 
ENDROOT
BRANCH   2   3
ATOM      3  C   UNL     1     -13.880   4.637  27.071  0.00  0.00    +0.000 A 
ATOM      4  C   UNL     1     -14.195   4.899  28.409  0.00  0.00    +0.000 A 
ATOM      5  C   UNL     1     -15.461   4.585  28.907  0.00  0.00    +0.000 A 
ATOM      6  C   UNL     1     -16.419   4.013  28.070  0.00  0.00    +0.000 A 
ATOM      7  C   UNL     1     -16.117   3.768  26.731  0.00  0.00    +0.000 A 
ATOM      8  C   UNL     1     -14.851   4.081  26.232  0.00  0.00    +0.000 A 
ENDBRANCH   2   3
BRANCH   1  10
ATOM      9  O   UNL     1     -13.622   7.898  26.510  0.00  0.00    +0.000 OA
ATOM     10  C   UNL     1     -13.040   7.237  25.670  0.00  0.00    +0.000 C 
BRANCH  10  11
ATOM     11  O   UNL     1     -13.100   7.522  24.350  0.00  0.00    +0.000 OA
ATOM     12  H   UNL     1     -12.660   6.883  23.761  0.00  0.00    +0.000 HD
ENDBRANCH  10  11
ENDBRANCH   1  10
TORSDOF 3
ENDMDL
MODEL 4
REMARK VINA RESULT:    -4.641      0.869      1.874
REMARK INTER + INTRA:          -5.450
REMARK INTER:                  -5.500
REMARK INTRA:                   0.049
REMARK UNBOUND:                -0.130
REMARK  Name = C:\Users\sofiya chavarekar\OneDrive\Assignment- Module 1\PROJECT(AI-based drug target identification for SDH-related rare disorders)\Data\Ligands\PDB\Ligand_0083.pdb
REMARK  3 active torsions:
REMARK  status: ('A' for Active; 'I' for Inactive)
REMARK    1  A    between atoms: C_2  and  O_3
REMARK    2  A    between atoms: C_2  and  C_4
REMARK    3  A    between atoms: C_5  and  C_6
REMARK                            x       y       z     vdW  Elec       q    Type
REMARK                         _______ _______ _______ _____ _____    ______ ____
ROOT
ATOM      1  C   UNL     1     -16.009   7.204  26.878  0.00  0.00    +0.000 C 
ATOM      2  C   UNL     1     -15.193   6.161  26.653  0.00  0.00    +0.000 C 
ENDROOT
BRANCH   2   3
ATOM      3  C   UNL     1     -13.787   6.233  26.255  0.00  0.00    +0.000 A 
ATOM      4  C   UNL     1     -12.811   5.545  26.985  0.00  0.00    +0.000 A 
ATOM      5  C   UNL     1     -11.466   5.637  26.619  0.00  0.00    +0.000 A 
ATOM      6  C   UNL     1     -11.093   6.410  25.520  0.00  0.00    +0.000 A 
ATOM      7  C   UNL     1     -12.064   7.080  24.777  0.00  0.00    +0.000 A 
ATOM      8  C   UNL     1     -13.409   6.991  25.142  0.00  0.00    +0.000 A 
ENDBRANCH   2   3
BRANCH   1  10
ATOM      9  O   UNL     1     -14.953   9.278  27.494  0.00  0.00    +0.000 OA
ATOM     10  C   UNL     1     -15.644   8.632  26.730  0.00  0.00    +0.000 C 
BRANCH  10  11
ATOM     11  O   UNL     1     -16.163   9.155  25.596  0.00  0.00    +0.000 OA
ATOM     12  H   UNL     1     -15.886   8.724  24.769  0.00  0.00    +0.000 HD
ENDBRANCH  10  11
ENDBRANCH   1  10
TORSDOF 3
ENDMDL
MODEL 5
REMARK VINA RESULT:    -4.313      2.774      3.698
REMARK INTER + INTRA:          -5.074
REMARK INTER:                  -4.940
REMARK INTRA:                  -0.134
REMARK UNBOUND:                -0.130
REMARK  Name = C:\Users\sofiya chavarekar\OneDrive\Assignment- Module 1\PROJECT(AI-based drug target identification for SDH-related rare disorders)\Data\Ligands\PDB\Ligand_0083.pdb
REMARK  3 active torsions:
REMARK  status: ('A' for Active; 'I' for Inactive)
REMARK    1  A    between atoms: C_2  and  O_3
REMARK    2  A    between atoms: C_2  and  C_4
REMARK    3  A    between atoms: C_5  and  C_6
REMARK                            x       y       z     vdW  Elec       q    Type
REMARK                         _______ _______ _______ _____ _____    ______ ____
ROOT
ATOM      1  C   UNL     1     -14.136   7.573  26.293  0.00  0.00    +0.000 C 
ATOM      2  C   UNL     1     -14.978   6.819  27.018  0.00  0.00    +0.000 C 
ENDROOT
BRANCH   2   3
ATOM      3  C   UNL     1     -14.877   5.376  27.238  0.00  0.00    +0.000 A 
ATOM      4  C   UNL     1     -15.419   4.480  26.310  0.00  0.00    +0.000 A 
ATOM      5  C   UNL     1     -15.346   3.104  26.536  0.00  0.00    +0.000 A 
ATOM      6  C   UNL     1     -14.724   2.618  27.686  0.00  0.00    +0.000 A 
ATOM      7  C   UNL     1     -14.165   3.505  28.604  0.00  0.00    +0.000 A 
ATOM      8  C   UNL     1     -14.239   4.882  28.381  0.00  0.00    +0.000 A 
ENDBRANCH   2   3
BRANCH   1  10
ATOM      9  O   UNL     1     -12.066   6.380  25.996  0.00  0.00    +0.000 OA
ATOM     10  C   UNL     1     -12.957   7.076  25.548  0.00  0.00    +0.000 C 
BRANCH  10  11
ATOM     11  O   UNL     1     -12.991   7.474  24.256  0.00  0.00    +0.000 OA
ATOM     12  H   UNL     1     -12.562   8.327  24.067  0.00  0.00    +0.000 HD
ENDBRANCH  10  11
ENDBRANCH   1  10
TORSDOF 3
ENDMDL
MODEL 6
REMARK VINA RESULT:    -4.068      2.962      4.038
REMARK INTER + INTRA:          -4.793
REMARK INTER:                  -4.804
REMARK INTRA:                   0.011
REMARK UNBOUND:                -0.130
REMARK  Name = C:\Users\sofiya chavarekar\OneDrive\Assignment- Module 1\PROJECT(AI-based drug target identification for SDH-related rare disorders)\Data\Ligands\PDB\Ligand_0083.pdb
REMARK  3 active torsions:
REMARK  status: ('A' for Active; 'I' for Inactive)
REMARK    1  A    between atoms: C_2  and  O_3
REMARK    2  A    between atoms: C_2  and  C_4
REMARK    3  A    between atoms: C_5  and  C_6
REMARK                            x       y       z     vdW  Elec       q    Type
REMARK                         _______ _______ _______ _____ _____    ______ ____
ROOT
ATOM      1  C   UNL     1     -14.790   3.304  28.251  0.00  0.00    +0.000 C 
ATOM      2  C   UNL     1     -14.023   3.355  27.150  0.00  0.00    +0.000 C 
ENDROOT
BRANCH   2   3
ATOM      3  C   UNL     1     -13.421   4.556  26.570  0.00  0.00    +0.000 A 
ATOM      4  C   UNL     1     -12.039   4.758  26.643  0.00  0.00    +0.000 A 
ATOM      5  C   UNL     1     -11.469   5.918  26.113  0.00  0.00    +0.000 A 
ATOM      6  C   UNL     1     -12.278   6.876  25.502  0.00  0.00    +0.000 A 
ATOM      7  C   UNL     1     -13.654   6.670  25.409  0.00  0.00    +0.000 A 
ATOM      8  C   UNL     1     -14.225   5.512  25.940  0.00  0.00    +0.000 A 
ENDBRANCH   2   3
BRANCH   1  10
ATOM      9  O   UNL     1     -16.343   4.814  29.301  0.00  0.00    +0.000 OA
ATOM     10  C   UNL     1     -15.200   4.466  29.072  0.00  0.00    +0.000 C 
BRANCH  10  11
ATOM     11  O   UNL     1     -14.126   5.111  29.580  0.00  0.00    +0.000 OA
ATOM     12  H   UNL     1     -13.269   4.668  29.449  0.00  0.00    +0.000 HD
ENDBRANCH  10  11
ENDBRANCH   1  10
TORSDOF 3
ENDMDL
MODEL 7
REMARK VINA RESULT:    -4.040     12.355     13.549
REMARK INTER + INTRA:          -4.761
REMARK INTER:                  -4.561
REMARK INTRA:                  -0.200
REMARK UNBOUND:                -0.130
REMARK  Name = C:\Users\sofiya chavarekar\OneDrive\Assignment- Module 1\PROJECT(AI-based drug target identification for SDH-related rare disorders)\Data\Ligands\PDB\Ligand_0083.pdb
REMARK  3 active torsions:
REMARK  status: ('A' for Active; 'I' for Inactive)
REMARK    1  A    between atoms: C_2  and  O_3
REMARK    2  A    between atoms: C_2  and  C_4
REMARK    3  A    between atoms: C_5  and  C_6
REMARK                            x       y       z     vdW  Elec       q    Type
REMARK                         _______ _______ _______ _____ _____    ______ ____
ROOT
ATOM      1  C   UNL     1     -21.755  -1.783  20.738  0.00  0.00    +0.000 C 
ATOM      2  C   UNL     1     -22.081  -0.511  21.022  0.00  0.00    +0.000 C 
ENDROOT
BRANCH   2   3
ATOM      3  C   UNL     1     -22.083   0.611  20.083  0.00  0.00    +0.000 A 
ATOM      4  C   UNL     1     -20.879   1.211  19.697  0.00  0.00    +0.000 A 
ATOM      5  C   UNL     1     -20.886   2.300  18.823  0.00  0.00    +0.000 A 
ATOM      6  C   UNL     1     -22.094   2.789  18.327  0.00  0.00    +0.000 A 
ATOM      7  C   UNL     1     -23.295   2.183  18.693  0.00  0.00    +0.000 A 
ATOM      8  C   UNL     1     -23.290   1.095  19.568  0.00  0.00    +0.000 A 
ENDBRANCH   2   3
BRANCH   1  10
ATOM      9  O   UNL     1     -21.987  -2.407  18.425  0.00  0.00    +0.000 OA
ATOM     10  C   UNL     1     -21.300  -2.284  19.421  0.00  0.00    +0.000 C 
BRANCH  10  11
ATOM     11  O   UNL     1     -19.980  -2.577  19.438  0.00  0.00    +0.000 OA
ATOM     12  H   UNL     1     -19.723  -3.387  18.963  0.00  0.00    +0.000 HD
ENDBRANCH  10  11
ENDBRANCH   1  10
TORSDOF 3
ENDMDL
MODEL 8
REMARK VINA RESULT:    -3.801     10.247     11.629
REMARK INTER + INTRA:          -4.486
REMARK INTER:                  -4.215
REMARK INTRA:                  -0.271
REMARK UNBOUND:                -0.130
REMARK  Name = C:\Users\sofiya chavarekar\OneDrive\Assignment- Module 1\PROJECT(AI-based drug target identification for SDH-related rare disorders)\Data\Ligands\PDB\Ligand_0083.pdb
REMARK  3 active torsions:
REMARK  status: ('A' for Active; 'I' for Inactive)
REMARK    1  A    between atoms: C_2  and  O_3
REMARK    2  A    between atoms: C_2  and  C_4
REMARK    3  A    between atoms: C_5  and  C_6
REMARK                            x       y       z     vdW  Elec       q    Type
REMARK                         _______ _______ _______ _____ _____    ______ ____
ROOT
ATOM      1  C   UNL     1     -16.691  -0.438  32.679  0.00  0.00    +0.000 C 
ATOM      2  C   UNL     1     -17.889  -0.727  33.211  0.00  0.00    +0.000 C 
ENDROOT
BRANCH   2   3
ATOM      3  C   UNL     1     -19.187  -0.569  32.555  0.00  0.00    +0.000 A 
ATOM      4  C   UNL     1     -19.683  -1.576  31.719  0.00  0.00    +0.000 A 
ATOM      5  C   UNL     1     -20.910  -1.411  31.072  0.00  0.00    +0.000 A 
ATOM      6  C   UNL     1     -21.648  -0.243  31.264  0.00  0.00    +0.000 A 
ATOM      7  C   UNL     1     -21.168   0.754  32.111  0.00  0.00    +0.000 A 
ATOM      8  C   UNL     1     -19.941   0.592  32.757  0.00  0.00    +0.000 A 
ENDBRANCH   2   3
BRANCH   1  10
ATOM      9  O   UNL     1     -16.596   1.297  31.013  0.00  0.00    +0.000 OA
ATOM     10  C   UNL     1     -16.459   0.131  31.332  0.00  0.00    +0.000 C 
BRANCH  10  11
ATOM     11  O   UNL     1     -16.037  -0.817  30.466  0.00  0.00    +0.000 OA
ATOM     12  H   UNL     1     -16.619  -1.593  30.374  0.00  0.00    +0.000 HD
ENDBRANCH  10  11
ENDBRANCH   1  10
TORSDOF 3
ENDMDL
MODEL 9
REMARK VINA RESULT:    -3.692      9.915     10.993
REMARK INTER + INTRA:          -4.362
REMARK INTER:                  -4.079
REMARK INTRA:                  -0.283
REMARK UNBOUND:                -0.130
REMARK  Name = C:\Users\sofiya chavarekar\OneDrive\Assignment- Module 1\PROJECT(AI-based drug target identification for SDH-related rare disorders)\Data\Ligands\PDB\Ligand_0083.pdb
REMARK  3 active torsions:
REMARK  status: ('A' for Active; 'I' for Inactive)
REMARK    1  A    between atoms: C_2  and  O_3
REMARK    2  A    between atoms: C_2  and  C_4
REMARK    3  A    between atoms: C_5  and  C_6
REMARK                            x       y       z     vdW  Elec       q    Type
REMARK                         _______ _______ _______ _____ _____    ______ ____
ROOT
ATOM      1  C   UNL     1     -19.045  -0.343  28.204  0.00  0.00    +0.000 C 
ATOM      2  C   UNL     1     -18.850   0.446  29.272  0.00  0.00    +0.000 C 
ENDROOT
BRANCH   2   3
ATOM      3  C   UNL     1     -18.358   0.021  30.583  0.00  0.00    +0.000 A 
ATOM      4  C   UNL     1     -19.256  -0.384  31.577  0.00  0.00    +0.000 A 
ATOM      5  C   UNL     1     -18.787  -0.763  32.836  0.00  0.00    +0.000 A 
ATOM      6  C   UNL     1     -17.419  -0.745  33.105  0.00  0.00    +0.000 A 
ATOM      7  C   UNL     1     -16.518  -0.360  32.113  0.00  0.00    +0.000 A 
ATOM      8  C   UNL     1     -16.986   0.021  30.854  0.00  0.00    +0.000 A 
ENDBRANCH   2   3
BRANCH   1  10
ATOM      9  O   UNL     1     -19.638  -2.659  28.480  0.00  0.00    +0.000 OA
ATOM     10  C   UNL     1     -18.831  -1.807  28.161  0.00  0.00    +0.000 C 
BRANCH  10  11
ATOM     11  O   UNL     1     -17.601  -2.108  27.686  0.00  0.00    +0.000 OA
ATOM     12  H   UNL     1     -16.856  -1.688  28.151  0.00  0.00    +0.000 HD
ENDBRANCH  10  11
ENDBRANCH   1  10
TORSDOF 3
ENDMDL
