MODEL 1
REMARK VINA RESULT:    -4.594      0.000      0.000
REMARK INTER + INTRA:          -5.702
REMARK INTER:                  -5.669
REMARK INTRA:                  -0.033
REMARK UNBOUND:                -0.033
REMARK  Name = C:\Users\sofiya chavarekar\OneDrive\Assignment- Module 1\PROJECT(AI-based drug target identification for SDH-related rare disorders)\Data\Ligands\PDB\Ligand_0080.pdb
REMARK  5 active torsions:
REMARK  status: ('A' for Active; 'I' for Inactive)
REMARK    1  A    between atoms: C_2  and  O_3
REMARK    2  A    between atoms: C_2  and  C_4
REMARK    3  A    between atoms: C_4  and  C_5
REMARK    4  A    between atoms: C_5  and  C_6
REMARK    5  A    between atoms: C_6  and  O_8
REMARK                            x       y       z     vdW  Elec       q    Type
REMARK                         _______ _______ _______ _____ _____    ______ ____
ROOT
ATOM      1  C   UNL     1     -10.773   5.207  26.104  0.00  0.00    +0.000 C 
ENDROOT
BRANCH   1   3
ATOM      2  O   UNL     1      -9.386   4.591  24.214  0.00  0.00    +0.000 OA
ATOM      3  C   UNL     1      -9.689   4.443  25.387  0.00  0.00    +0.000 C 
BRANCH   3   4
ATOM      4  O   UNL     1      -9.064   3.553  26.189  0.00  0.00    +0.000 OA
ATOM      5  H   UNL     1      -8.492   3.959  26.868  0.00  0.00    +0.000 HD
ENDBRANCH   3   4
ENDBRANCH   1   3
BRANCH   1   6
ATOM      6  C   UNL     1     -11.224   6.417  25.293  0.00  0.00    +0.000 C 
BRANCH   6   7
ATOM      7  C   UNL     1     -12.615   6.827  25.672  0.00  0.00    +0.000 C 
ATOM      8  O   UNL     1     -13.053   6.978  26.802  0.00  0.00    +0.000 OA
BRANCH   7   9
ATOM      9  O   UNL     1     -13.399   7.017  24.595  0.00  0.00    +0.000 OA
ATOM     10  H   UNL     1     -14.253   7.335  24.957  0.00  0.00    +0.000 HD
ENDBRANCH   7   9
ENDBRANCH   6   7
ENDBRANCH   1   6
TORSDOF 5
ENDMDL
MODEL 2
REMARK VINA RESULT:    -4.581      0.121      4.349
REMARK INTER + INTRA:          -5.685
REMARK INTER:                  -5.653
REMARK INTRA:                  -0.032
REMARK UNBOUND:                -0.033
REMARK  Name = C:\Users\sofiya chavarekar\OneDrive\Assignment- Module 1\PROJECT(AI-based drug target identification for SDH-related rare disorders)\Data\Ligands\PDB\Ligand_0080.pdb
REMARK  5 active torsions:
REMARK  status: ('A' for Active; 'I' for Inactive)
REMARK    1  A    between atoms: C_2  and  O_3
REMARK    2  A    between atoms: C_2  and  C_4
REMARK    3  A    between atoms: C_4  and  C_5
REMARK    4  A    between atoms: C_5  and  C_6
REMARK    5  A    between atoms: C_6  and  O_8
REMARK                            x       y       z     vdW  Elec       q    Type
REMARK                         _______ _______ _______ _____ _____    ______ ____
ROOT
ATOM      1  C   UNL     1     -11.252   6.481  25.420  0.00  0.00    +0.000 C 
ENDROOT
BRANCH   1   3
ATOM      2  O   UNL     1     -13.120   7.105  26.834  0.00  0.00    +0.000 OA
ATOM      3  C   UNL     1     -12.682   6.852  25.723  0.00  0.00    +0.000 C 
BRANCH   3   4
ATOM      4  O   UNL     1     -13.456   6.879  24.616  0.00  0.00    +0.000 OA
ATOM      5  H   UNL     1     -13.243   6.187  23.962  0.00  0.00    +0.000 HD
ENDBRANCH   3   4
ENDBRANCH   1   3
BRANCH   1   6
ATOM      6  C   UNL     1     -10.850   5.198  26.138  0.00  0.00    +0.000 C 
BRANCH   6   7
ATOM      7  C   UNL     1      -9.717   4.520  25.430  0.00  0.00    +0.000 C 
ATOM      8  O   UNL     1      -9.401   4.652  24.258  0.00  0.00    +0.000 OA
BRANCH   7   9
ATOM      9  O   UNL     1      -9.036   3.689  26.240  0.00  0.00    +0.000 OA
ATOM     10  H   UNL     1      -8.240   4.194  26.509  0.00  0.00    +0.000 HD
ENDBRANCH   7   9
ENDBRANCH   6   7
ENDBRANCH   1   6
TORSDOF 5
ENDMDL
MODEL 3
REMARK VINA RESULT:    -3.990      7.280      8.640
REMARK INTER + INTRA:          -4.956
REMARK INTER:                  -4.880
REMARK INTRA:                  -0.076
REMARK UNBOUND:                -0.033
REMARK  Name = C:\Users\sofiya chavarekar\OneDrive\Assignment- Module 1\PROJECT(AI-based drug target identification for SDH-related rare disorders)\Data\Ligands\PDB\Ligand_0080.pdb
REMARK  5 active torsions:
REMARK  status: ('A' for Active; 'I' for Inactive)
REMARK    1  A    between atoms: C_2  and  O_3
REMARK    2  A    between atoms: C_2  and  C_4
REMARK    3  A    between atoms: C_4  and  C_5
REMARK    4  A    between atoms: C_5  and  C_6
REMARK    5  A    between atoms: C_6  and  O_8
REMARK                            x       y       z     vdW  Elec       q    Type
REMARK                         _______ _______ _______ _____ _____    ______ ____
ROOT
ATOM      1  C   UNL     1     -13.676  -0.854  29.279  0.00  0.00    +0.000 C 
ENDROOT
BRANCH   1   3
ATOM      2  O   UNL     1     -12.687  -2.066  31.131  0.00  0.00    +0.000 OA
ATOM      3  C   UNL     1     -13.529  -1.286  30.716  0.00  0.00    +0.000 C 
BRANCH   3   4
ATOM      4  O   UNL     1     -14.444  -0.710  31.527  0.00  0.00    +0.000 OA
ATOM      5  H   UNL     1     -14.263   0.227  31.733  0.00  0.00    +0.000 HD
ENDBRANCH   3   4
ENDBRANCH   1   3
BRANCH   1   6
ATOM      6  C   UNL     1     -12.432  -0.118  28.794  0.00  0.00    +0.000 C 
BRANCH   6   7
ATOM      7  C   UNL     1     -11.461  -1.068  28.162  0.00  0.00    +0.000 C 
ATOM      8  O   UNL     1     -10.449  -1.527  28.668  0.00  0.00    +0.000 OA
BRANCH   7   9
ATOM      9  O   UNL     1     -11.810  -1.387  26.901  0.00  0.00    +0.000 OA
ATOM     10  H   UNL     1     -11.443  -0.665  26.347  0.00  0.00    +0.000 HD
ENDBRANCH   7   9
ENDBRANCH   6   7
ENDBRANCH   1   6
TORSDOF 5
ENDMDL
MODEL 4
REMARK VINA RESULT:    -3.918      7.678      8.300
REMARK INTER + INTRA:          -4.867
REMARK INTER:                  -4.802
REMARK INTRA:                  -0.065
REMARK UNBOUND:                -0.033
REMARK  Name = C:\Users\sofiya chavarekar\OneDrive\Assignment- Module 1\PROJECT(AI-based drug target identification for SDH-related rare disorders)\Data\Ligands\PDB\Ligand_0080.pdb
REMARK  5 active torsions:
REMARK  status: ('A' for Active; 'I' for Inactive)
REMARK    1  A    between atoms: C_2  and  O_3
REMARK    2  A    between atoms: C_2  and  C_4
REMARK    3  A    between atoms: C_4  and  C_5
REMARK    4  A    between atoms: C_5  and  C_6
REMARK    5  A    between atoms: C_6  and  O_8
REMARK                            x       y       z     vdW  Elec       q    Type
REMARK                         _______ _______ _______ _____ _____    ______ ____
ROOT
ATOM      1  C   UNL     1     -13.869  -0.806  29.924  0.00  0.00    +0.000 C 
ENDROOT
BRANCH   1   3
ATOM      2  O   UNL     1     -11.533  -1.317  29.532  0.00  0.00    +0.000 OA
ATOM      3  C   UNL     1     -12.543  -1.468  30.199  0.00  0.00    +0.000 C 
BRANCH   3   4
ATOM      4  O   UNL     1     -12.579  -2.267  31.288  0.00  0.00    +0.000 OA
ATOM      5  H   UNL     1     -12.095  -1.915  32.059  0.00  0.00    +0.000 HD
ENDBRANCH   3   4
ENDBRANCH   1   3
BRANCH   1   6
ATOM      6  C   UNL     1     -13.894  -0.176  28.535  0.00  0.00    +0.000 C 
BRANCH   6   7
ATOM      7  C   UNL     1     -14.873  -0.880  27.645  0.00  0.00    +0.000 C 
ATOM      8  O   UNL     1     -14.633  -1.431  26.582  0.00  0.00    +0.000 OA
BRANCH   7   9
ATOM      9  O   UNL     1     -16.125  -0.845  28.139  0.00  0.00    +0.000 OA
ATOM     10  H   UNL     1     -16.301  -1.759  28.447  0.00  0.00    +0.000 HD
ENDBRANCH   7   9
ENDBRANCH   6   7
ENDBRANCH   1   6
TORSDOF 5
ENDMDL
MODEL 5
REMARK VINA RESULT:    -3.796      2.226      3.119
REMARK INTER + INTRA:          -4.717
REMARK INTER:                  -4.458
REMARK INTRA:                  -0.258
REMARK UNBOUND:                -0.033
REMARK  Name = C:\Users\sofiya chavarekar\OneDrive\Assignment- Module 1\PROJECT(AI-based drug target identification for SDH-related rare disorders)\Data\Ligands\PDB\Ligand_0080.pdb
REMARK  5 active torsions:
REMARK  status: ('A' for Active; 'I' for Inactive)
REMARK    1  A    between atoms: C_2  and  O_3
REMARK    2  A    between atoms: C_2  and  C_4
REMARK    3  A    between atoms: C_4  and  C_5
REMARK    4  A    between atoms: C_5  and  C_6
REMARK    5  A    between atoms: C_6  and  O_8
REMARK                            x       y       z     vdW  Elec       q    Type
REMARK                         _______ _______ _______ _____ _____    ______ ____
ROOT
ATOM      1  C   UNL     1     -11.739   6.022  26.155  0.00  0.00    +0.000 C 
ENDROOT
BRANCH   1   3
ATOM      2  O   UNL     1     -10.716   7.045  24.211  0.00  0.00    +0.000 OA
ATOM      3  C   UNL     1     -11.714   6.816  24.873  0.00  0.00    +0.000 C 
BRANCH   3   4
ATOM      4  O   UNL     1     -12.939   7.262  24.516  0.00  0.00    +0.000 OA
ATOM      5  H   UNL     1     -13.458   6.626  23.989  0.00  0.00    +0.000 HD
ENDBRANCH   3   4
ENDBRANCH   1   3
BRANCH   1   6
ATOM      6  C   UNL     1     -13.070   5.300  26.331  0.00  0.00    +0.000 C 
BRANCH   6   7
ATOM      7  C   UNL     1     -13.811   5.826  27.523  0.00  0.00    +0.000 C 
ATOM      8  O   UNL     1     -14.003   5.248  28.582  0.00  0.00    +0.000 OA
BRANCH   7   9
ATOM      9  O   UNL     1     -14.292   7.066  27.315  0.00  0.00    +0.000 OA
ATOM     10  H   UNL     1     -14.836   6.993  26.502  0.00  0.00    +0.000 HD
ENDBRANCH   7   9
ENDBRANCH   6   7
ENDBRANCH   1   6
TORSDOF 5
ENDMDL
MODEL 6
REMARK VINA RESULT:    -3.784     10.155     11.145
REMARK INTER + INTRA:          -4.702
REMARK INTER:                  -4.478
REMARK INTRA:                  -0.224
REMARK UNBOUND:                -0.033
REMARK  Name = C:\Users\sofiya chavarekar\OneDrive\Assignment- Module 1\PROJECT(AI-based drug target identification for SDH-related rare disorders)\Data\Ligands\PDB\Ligand_0080.pdb
REMARK  5 active torsions:
REMARK  status: ('A' for Active; 'I' for Inactive)
REMARK    1  A    between atoms: C_2  and  O_3
REMARK    2  A    between atoms: C_2  and  C_4
REMARK    3  A    between atoms: C_4  and  C_5
REMARK    4  A    between atoms: C_5  and  C_6
REMARK    5  A    between atoms: C_6  and  O_8
REMARK                            x       y       z     vdW  Elec       q    Type
REMARK                         _______ _______ _______ _____ _____    ______ ____
ROOT
ATOM      1  C   UNL     1     -17.486  -0.979  31.792  0.00  0.00    +0.000 C 
ENDROOT
BRANCH   1   3
ATOM      2  O   UNL     1     -18.772  -0.060  33.629  0.00  0.00    +0.000 OA
ATOM      3  C   UNL     1     -17.784  -0.657  33.234  0.00  0.00    +0.000 C 
BRANCH   3   4
ATOM      4  O   UNL     1     -16.824  -1.105  34.074  0.00  0.00    +0.000 OA
ATOM      5  H   UNL     1     -16.035  -1.463  33.626  0.00  0.00    +0.000 HD
ENDBRANCH   3   4
ENDBRANCH   1   3
BRANCH   1   6
ATOM      6  C   UNL     1     -16.425  -0.043  31.224  0.00  0.00    +0.000 C 
BRANCH   6   7
ATOM      7  C   UNL     1     -15.119  -0.758  31.050  0.00  0.00    +0.000 C 
ATOM      8  O   UNL     1     -14.402  -1.200  31.933  0.00  0.00    +0.000 OA
BRANCH   7   9
ATOM      9  O   UNL     1     -14.771  -0.870  29.755  0.00  0.00    +0.000 OA
ATOM     10  H   UNL     1     -14.731   0.052  29.423  0.00  0.00    +0.000 HD
ENDBRANCH   7   9
ENDBRANCH   6   7
ENDBRANCH   1   6
TORSDOF 5
ENDMDL
MODEL 7
REMARK VINA RESULT:    -3.778      6.542      7.761
REMARK INTER + INTRA:          -4.695
REMARK INTER:                  -4.519
REMARK INTRA:                  -0.177
REMARK UNBOUND:                -0.033
REMARK  Name = C:\Users\sofiya chavarekar\OneDrive\Assignment- Module 1\PROJECT(AI-based drug target identification for SDH-related rare disorders)\Data\Ligands\PDB\Ligand_0080.pdb
REMARK  5 active torsions:
REMARK  status: ('A' for Active; 'I' for Inactive)
REMARK    1  A    between atoms: C_2  and  O_3
REMARK    2  A    between atoms: C_2  and  C_4
REMARK    3  A    between atoms: C_4  and  C_5
REMARK    4  A    between atoms: C_5  and  C_6
REMARK    5  A    between atoms: C_6  and  O_8
REMARK                            x       y       z     vdW  Elec       q    Type
REMARK                         _______ _______ _______ _____ _____    ______ ____
ROOT
ATOM      1  C   UNL     1     -14.361   0.380  28.807  0.00  0.00    +0.000 C 
ENDROOT
BRANCH   1   3
ATOM      2  O   UNL     1     -14.178   2.706  28.153  0.00  0.00    +0.000 OA
ATOM      3  C   UNL     1     -13.655   1.615  28.309  0.00  0.00    +0.000 C 
BRANCH   3   4
ATOM      4  O   UNL     1     -12.348   1.395  28.045  0.00  0.00    +0.000 OA
ATOM      5  H   UNL     1     -11.873   2.172  27.696  0.00  0.00    +0.000 HD
ENDBRANCH   3   4
ENDBRANCH   1   3
BRANCH   1   6
ATOM      6  C   UNL     1     -13.402  -0.801  28.908  0.00  0.00    +0.000 C 
BRANCH   6   7
ATOM      7  C   UNL     1     -13.050  -1.084  30.337  0.00  0.00    +0.000 C 
ATOM      8  O   UNL     1     -13.374  -2.062  30.993  0.00  0.00    +0.000 OA
BRANCH   7   9
ATOM      9  O   UNL     1     -12.307  -0.102  30.881  0.00  0.00    +0.000 OA
ATOM     10  H   UNL     1     -11.442  -0.155  30.421  0.00  0.00    +0.000 HD
ENDBRANCH   7   9
ENDBRANCH   6   7
ENDBRANCH   1   6
TORSDOF 5
ENDMDL
MODEL 8
REMARK VINA RESULT:    -3.761      1.698      2.337
REMARK INTER + INTRA:          -4.673
REMARK INTER:                  -4.599
REMARK INTRA:                  -0.075
REMARK UNBOUND:                -0.033
REMARK  Name = C:\Users\sofiya chavarekar\OneDrive\Assignment- Module 1\PROJECT(AI-based drug target identification for SDH-related rare disorders)\Data\Ligands\PDB\Ligand_0080.pdb
REMARK  5 active torsions:
REMARK  status: ('A' for Active; 'I' for Inactive)
REMARK    1  A    between atoms: C_2  and  O_3
REMARK    2  A    between atoms: C_2  and  C_4
REMARK    3  A    between atoms: C_4  and  C_5
REMARK    4  A    between atoms: C_5  and  C_6
REMARK    5  A    between atoms: C_6  and  O_8
REMARK                            x       y       z     vdW  Elec       q    Type
REMARK                         _______ _______ _______ _____ _____    ______ ____
ROOT
ATOM      1  C   UNL     1     -12.552   5.841  26.257  0.00  0.00    +0.000 C 
ENDROOT
BRANCH   1   3
ATOM      2  O   UNL     1     -10.289   5.012  25.999  0.00  0.00    +0.000 OA
ATOM      3  C   UNL     1     -11.155   5.815  25.691  0.00  0.00    +0.000 C 
BRANCH   3   4
ATOM      4  O   UNL     1     -10.946   6.793  24.782  0.00  0.00    +0.000 OA
ATOM      5  H   UNL     1     -10.437   6.509  23.999  0.00  0.00    +0.000 HD
ENDBRANCH   3   4
ENDBRANCH   1   3
BRANCH   1   6
ATOM      6  C   UNL     1     -13.498   6.628  25.358  0.00  0.00    +0.000 C 
BRANCH   6   7
ATOM      7  C   UNL     1     -14.060   7.815  26.080  0.00  0.00    +0.000 C 
ATOM      8  O   UNL     1     -14.358   7.881  27.262  0.00  0.00    +0.000 OA
BRANCH   7   9
ATOM      9  O   UNL     1     -14.231   8.872  25.263  0.00  0.00    +0.000 OA
ATOM     10  H   UNL     1     -13.324   9.165  25.035  0.00  0.00    +0.000 HD
ENDBRANCH   7   9
ENDBRANCH   6   7
ENDBRANCH   1   6
TORSDOF 5
ENDMDL
MODEL 9
REMARK VINA RESULT:    -3.667      1.806      4.799
REMARK INTER + INTRA:          -4.558
REMARK INTER:                  -4.512
REMARK INTRA:                  -0.045
REMARK UNBOUND:                -0.033
REMARK  Name = C:\Users\sofiya chavarekar\OneDrive\Assignment- Module 1\PROJECT(AI-based drug target identification for SDH-related rare disorders)\Data\Ligands\PDB\Ligand_0080.pdb
REMARK  5 active torsions:
REMARK  status: ('A' for Active; 'I' for Inactive)
REMARK    1  A    between atoms: C_2  and  O_3
REMARK    2  A    between atoms: C_2  and  C_4
REMARK    3  A    between atoms: C_4  and  C_5
REMARK    4  A    between atoms: C_5  and  C_6
REMARK    5  A    between atoms: C_6  and  O_8
REMARK                            x       y       z     vdW  Elec       q    Type
REMARK                         _______ _______ _______ _____ _____    ______ ____
ROOT
ATOM      1  C   UNL     1     -13.449   7.003  25.313  0.00  0.00    +0.000 C 
ENDROOT
BRANCH   1   3
ATOM      2  O   UNL     1     -14.519   8.039  27.224  0.00  0.00    +0.000 OA
ATOM      3  C   UNL     1     -14.190   8.089  26.051  0.00  0.00    +0.000 C 
BRANCH   3   4
ATOM      4  O   UNL     1     -14.461   9.156  25.266  0.00  0.00    +0.000 OA
ATOM      5  H   UNL     1     -13.680   9.535  24.822  0.00  0.00    +0.000 HD
ENDBRANCH   3   4
ENDBRANCH   1   3
BRANCH   1   6
ATOM      6  C   UNL     1     -12.452   6.296  26.225  0.00  0.00    +0.000 C 
BRANCH   6   7
ATOM      7  C   UNL     1     -11.138   6.100  25.532  0.00  0.00    +0.000 C 
ATOM      8  O   UNL     1     -10.738   6.687  24.539  0.00  0.00    +0.000 OA
BRANCH   7   9
ATOM      9  O   UNL     1     -10.388   5.153  26.126  0.00  0.00    +0.000 OA
ATOM     10  H   UNL     1     -10.835   4.975  26.980  0.00  0.00    +0.000 HD
ENDBRANCH   7   9
ENDBRANCH   6   7
ENDBRANCH   1   6
TORSDOF 5
ENDMDL
