MODEL 1
REMARK VINA RESULT:    -3.844      0.000      0.000
REMARK INTER + INTRA:          -3.844
REMARK INTER:                  -3.844
REMARK INTRA:                   0.000
REMARK UNBOUND:                 0.000
REMARK  Name = C:\Users\sofiya chavarekar\OneDrive\Assignment- Module 1\PROJECT(AI-based drug target identification for SDH-related rare disorders)\Data\Ligands\PDB\Ligand_0076.pdb
REMARK  0 active torsions:
REMARK  status: ('A' for Active; 'I' for Inactive)
REMARK                            x       y       z     vdW  Elec       q    Type
REMARK                         _______ _______ _______ _____ _____    ______ ____
ROOT
ATOM      1  O   UNL     1     -10.604   6.976  24.092  0.00  0.00    +0.000 OA
ATOM      2  C   UNL     1     -11.386   6.654  24.987  0.00  0.00    +0.000 C 
ATOM      3  C   UNL     1     -10.943   5.762  26.128  0.00  0.00    +0.000 C 
ATOM      4  C   UNL     1     -12.037   4.777  26.517  0.00  0.00    +0.000 C 
ATOM      5  C   UNL     1     -13.373   5.480  26.748  0.00  0.00    +0.000 C 
ATOM      6  C   UNL     1     -13.801   6.236  25.494  0.00  0.00    +0.000 C 
ATOM      7  C   UNL     1     -12.761   7.272  25.093  0.00  0.00    +0.000 C 
ENDROOT
TORSDOF 0
ENDMDL
MODEL 2
REMARK VINA RESULT:    -3.639      2.394      3.075
REMARK INTER + INTRA:          -3.639
REMARK INTER:                  -3.639
REMARK INTRA:                   0.000
REMARK UNBOUND:                 0.000
REMARK  Name = C:\Users\sofiya chavarekar\OneDrive\Assignment- Module 1\PROJECT(AI-based drug target identification for SDH-related rare disorders)\Data\Ligands\PDB\Ligand_0076.pdb
REMARK  0 active torsions:
REMARK  status: ('A' for Active; 'I' for Inactive)
REMARK                            x       y       z     vdW  Elec       q    Type
REMARK                         _______ _______ _______ _____ _____    ______ ____
ROOT
ATOM      1  O   UNL     1     -13.901   5.300  28.564  0.00  0.00    +0.000 OA
ATOM      2  C   UNL     1     -13.658   5.720  27.433  0.00  0.00    +0.000 C 
ATOM      3  C   UNL     1     -12.553   5.112  26.594  0.00  0.00    +0.000 C 
ATOM      4  C   UNL     1     -11.803   6.179  25.809  0.00  0.00    +0.000 C 
ATOM      5  C   UNL     1     -12.758   7.084  25.033  0.00  0.00    +0.000 C 
ATOM      6  C   UNL     1     -13.743   7.759  25.983  0.00  0.00    +0.000 C 
ATOM      7  C   UNL     1     -14.556   6.731  26.756  0.00  0.00    +0.000 C 
ENDROOT
TORSDOF 0
ENDMDL
MODEL 3
REMARK VINA RESULT:    -3.589      1.951      2.725
REMARK INTER + INTRA:          -3.589
REMARK INTER:                  -3.589
REMARK INTRA:                   0.000
REMARK UNBOUND:                 0.000
REMARK  Name = C:\Users\sofiya chavarekar\OneDrive\Assignment- Module 1\PROJECT(AI-based drug target identification for SDH-related rare disorders)\Data\Ligands\PDB\Ligand_0076.pdb
REMARK  0 active torsions:
REMARK  status: ('A' for Active; 'I' for Inactive)
REMARK                            x       y       z     vdW  Elec       q    Type
REMARK                         _______ _______ _______ _____ _____    ______ ____
ROOT
ATOM      1  O   UNL     1     -14.177   8.703  26.157  0.00  0.00    +0.000 OA
ATOM      2  C   UNL     1     -13.813   7.526  26.152  0.00  0.00    +0.000 C 
ATOM      3  C   UNL     1     -14.604   6.460  26.881  0.00  0.00    +0.000 C 
ATOM      4  C   UNL     1     -13.683   5.450  27.552  0.00  0.00    +0.000 C 
ATOM      5  C   UNL     1     -12.640   4.905  26.578  0.00  0.00    +0.000 C 
ATOM      6  C   UNL     1     -11.802   6.044  26.004  0.00  0.00    +0.000 C 
ATOM      7  C   UNL     1     -12.674   7.057  25.277  0.00  0.00    +0.000 C 
ENDROOT
TORSDOF 0
ENDMDL
MODEL 4
REMARK VINA RESULT:    -3.536      2.312      3.394
REMARK INTER + INTRA:          -3.536
REMARK INTER:                  -3.536
REMARK INTRA:                   0.000
REMARK UNBOUND:                 0.000
REMARK  Name = C:\Users\sofiya chavarekar\OneDrive\Assignment- Module 1\PROJECT(AI-based drug target identification for SDH-related rare disorders)\Data\Ligands\PDB\Ligand_0076.pdb
REMARK  0 active torsions:
REMARK  status: ('A' for Active; 'I' for Inactive)
REMARK                            x       y       z     vdW  Elec       q    Type
REMARK                         _______ _______ _______ _____ _____    ______ ____
ROOT
ATOM      1  O   UNL     1     -15.693   6.490  26.651  0.00  0.00    +0.000 OA
ATOM      2  C   UNL     1     -14.464   6.478  26.582  0.00  0.00    +0.000 C 
ATOM      3  C   UNL     1     -13.712   7.574  25.855  0.00  0.00    +0.000 C 
ATOM      4  C   UNL     1     -12.524   7.012  25.087  0.00  0.00    +0.000 C 
ATOM      5  C   UNL     1     -11.648   6.126  25.971  0.00  0.00    +0.000 C 
ATOM      6  C   UNL     1     -12.465   4.972  26.544  0.00  0.00    +0.000 C 
ATOM      7  C   UNL     1     -13.639   5.484  27.367  0.00  0.00    +0.000 C 
ENDROOT
TORSDOF 0
ENDMDL
MODEL 5
REMARK VINA RESULT:    -3.191      2.056      2.497
REMARK INTER + INTRA:          -3.191
REMARK INTER:                  -3.191
REMARK INTRA:                   0.000
REMARK UNBOUND:                 0.000
REMARK  Name = C:\Users\sofiya chavarekar\OneDrive\Assignment- Module 1\PROJECT(AI-based drug target identification for SDH-related rare disorders)\Data\Ligands\PDB\Ligand_0076.pdb
REMARK  0 active torsions:
REMARK  status: ('A' for Active; 'I' for Inactive)
REMARK                            x       y       z     vdW  Elec       q    Type
REMARK                         _______ _______ _______ _____ _____    ______ ____
ROOT
ATOM      1  O   UNL     1     -14.093   8.279  25.883  0.00  0.00    +0.000 OA
ATOM      2  C   UNL     1     -13.907   7.151  26.341  0.00  0.00    +0.000 C 
ATOM      3  C   UNL     1     -12.512   6.659  26.667  0.00  0.00    +0.000 C 
ATOM      4  C   UNL     1     -12.344   5.191  26.302  0.00  0.00    +0.000 C 
ATOM      5  C   UNL     1     -13.466   4.333  26.883  0.00  0.00    +0.000 C 
ATOM      6  C   UNL     1     -14.823   4.822  26.384  0.00  0.00    +0.000 C 
ATOM      7  C   UNL     1     -15.062   6.274  26.770  0.00  0.00    +0.000 C 
ENDROOT
TORSDOF 0
ENDMDL
MODEL 6
REMARK VINA RESULT:    -3.111      2.847      3.547
REMARK INTER + INTRA:          -3.111
REMARK INTER:                  -3.111
REMARK INTRA:                   0.000
REMARK UNBOUND:                 0.000
REMARK  Name = C:\Users\sofiya chavarekar\OneDrive\Assignment- Module 1\PROJECT(AI-based drug target identification for SDH-related rare disorders)\Data\Ligands\PDB\Ligand_0076.pdb
REMARK  0 active torsions:
REMARK  status: ('A' for Active; 'I' for Inactive)
REMARK                            x       y       z     vdW  Elec       q    Type
REMARK                         _______ _______ _______ _____ _____    ______ ____
ROOT
ATOM      1  O   UNL     1     -16.301   6.232  27.510  0.00  0.00    +0.000 OA
ATOM      2  C   UNL     1     -15.261   6.134  26.859  0.00  0.00    +0.000 C 
ATOM      3  C   UNL     1     -14.620   4.784  26.611  0.00  0.00    +0.000 C 
ATOM      4  C   UNL     1     -13.102   4.870  26.689  0.00  0.00    +0.000 C 
ATOM      5  C   UNL     1     -12.555   5.998  25.816  0.00  0.00    +0.000 C 
ATOM      6  C   UNL     1     -13.156   7.336  26.237  0.00  0.00    +0.000 C 
ATOM      7  C   UNL     1     -14.673   7.318  26.126  0.00  0.00    +0.000 C 
ENDROOT
TORSDOF 0
ENDMDL
MODEL 7
REMARK VINA RESULT:    -2.945      2.614      3.636
REMARK INTER + INTRA:          -2.945
REMARK INTER:                  -2.945
REMARK INTRA:                   0.000
REMARK UNBOUND:                 0.000
REMARK  Name = C:\Users\sofiya chavarekar\OneDrive\Assignment- Module 1\PROJECT(AI-based drug target identification for SDH-related rare disorders)\Data\Ligands\PDB\Ligand_0076.pdb
REMARK  0 active torsions:
REMARK  status: ('A' for Active; 'I' for Inactive)
REMARK                            x       y       z     vdW  Elec       q    Type
REMARK                         _______ _______ _______ _____ _____    ______ ____
ROOT
ATOM      1  O   UNL     1     -14.487   7.894  27.201  0.00  0.00    +0.000 OA
ATOM      2  C   UNL     1     -14.591   6.715  26.861  0.00  0.00    +0.000 C 
ATOM      3  C   UNL     1     -15.934   6.015  26.871  0.00  0.00    +0.000 C 
ATOM      4  C   UNL     1     -15.803   4.576  27.350  0.00  0.00    +0.000 C 
ATOM      5  C   UNL     1     -14.708   3.827  26.594  0.00  0.00    +0.000 C 
ATOM      6  C   UNL     1     -13.366   4.535  26.761  0.00  0.00    +0.000 C 
ATOM      7  C   UNL     1     -13.431   5.966  26.247  0.00  0.00    +0.000 C 
ENDROOT
TORSDOF 0
ENDMDL
MODEL 8
REMARK VINA RESULT:    -2.854      9.908     10.660
REMARK INTER + INTRA:          -2.854
REMARK INTER:                  -2.854
REMARK INTRA:                   0.000
REMARK UNBOUND:                 0.000
REMARK  Name = C:\Users\sofiya chavarekar\OneDrive\Assignment- Module 1\PROJECT(AI-based drug target identification for SDH-related rare disorders)\Data\Ligands\PDB\Ligand_0076.pdb
REMARK  0 active torsions:
REMARK  status: ('A' for Active; 'I' for Inactive)
REMARK                            x       y       z     vdW  Elec       q    Type
REMARK                         _______ _______ _______ _____ _____    ______ ____
ROOT
ATOM      1  O   UNL     1     -20.054  -0.288  20.641  0.00  0.00    +0.000 OA
ATOM      2  C   UNL     1     -19.569  -0.725  21.685  0.00  0.00    +0.000 C 
ATOM      3  C   UNL     1     -19.209   0.203  22.828  0.00  0.00    +0.000 C 
ATOM      4  C   UNL     1     -17.913  -0.228  23.501  0.00  0.00    +0.000 C 
ATOM      5  C   UNL     1     -17.937  -1.709  23.875  0.00  0.00    +0.000 C 
ATOM      6  C   UNL     1     -18.167  -2.568  22.635  0.00  0.00    +0.000 C 
ATOM      7  C   UNL     1     -19.480  -2.210  21.953  0.00  0.00    +0.000 C 
ENDROOT
TORSDOF 0
ENDMDL
MODEL 9
REMARK VINA RESULT:    -2.775     10.409     11.123
REMARK INTER + INTRA:          -2.775
REMARK INTER:                  -2.775
REMARK INTRA:                   0.000
REMARK UNBOUND:                 0.000
REMARK  Name = C:\Users\sofiya chavarekar\OneDrive\Assignment- Module 1\PROJECT(AI-based drug target identification for SDH-related rare disorders)\Data\Ligands\PDB\Ligand_0076.pdb
REMARK  0 active torsions:
REMARK  status: ('A' for Active; 'I' for Inactive)
REMARK                            x       y       z     vdW  Elec       q    Type
REMARK                         _______ _______ _______ _____ _____    ______ ____
ROOT
ATOM      1  O   UNL     1     -17.159  -1.954  23.597  0.00  0.00    +0.000 OA
ATOM      2  C   UNL     1     -18.243  -1.839  23.024  0.00  0.00    +0.000 C 
ATOM      3  C   UNL     1     -18.902  -3.026  22.353  0.00  0.00    +0.000 C 
ATOM      4  C   UNL     1     -19.571  -2.621  21.046  0.00  0.00    +0.000 C 
ATOM      5  C   UNL     1     -20.486  -1.413  21.232  0.00  0.00    +0.000 C 
ATOM      6  C   UNL     1     -19.699  -0.227  21.780  0.00  0.00    +0.000 C 
ATOM      7  C   UNL     1     -19.052  -0.566  23.116  0.00  0.00    +0.000 C 
ENDROOT
TORSDOF 0
ENDMDL
