MODEL 1
REMARK VINA RESULT:    -3.638      0.000      0.000
REMARK INTER + INTRA:          -4.388
REMARK INTER:                  -4.277
REMARK INTRA:                  -0.111
REMARK UNBOUND:                -0.111
REMARK  Name = C:\Users\sofiya chavarekar\OneDrive\Assignment- Module 1\PROJECT(AI-based drug target identification for SDH-related rare disorders)\Data\Ligands\PDB\Ligand_0088.pdb
REMARK  5 active torsions:
REMARK  status: ('A' for Active; 'I' for Inactive)
REMARK    1  A    between atoms: C_1  and  C_2
REMARK    2  A    between atoms: C_2  and  O_3
REMARK    3  A    between atoms: O_3  and  C_4
REMARK    4  A    between atoms: C_4  and  C_6
REMARK    5  A    between atoms: C_6  and  C_7
REMARK                            x       y       z     vdW  Elec       q    Type
REMARK                         _______ _______ _______ _____ _____    ______ ____
ROOT
ATOM      1  C   UNL     1     -11.319   6.743  24.758  0.00  0.00    +0.000 C 
ATOM      2  O   UNL     1     -10.427   7.076  23.989  0.00  0.00    +0.000 OA
ENDROOT
BRANCH   1   3
ATOM      3  C   UNL     1     -11.132   5.887  25.987  0.00  0.00    +0.000 C 
ATOM      4  C   UNL     1     -10.097   4.796  25.769  0.00  0.00    +0.000 C 
ENDBRANCH   1   3
BRANCH   1   5
ATOM      5  O   UNL     1     -12.634   7.074  24.622  0.00  0.00    +0.000 OA
BRANCH   5   7
ATOM      6  C   UNL     1     -14.132   8.164  26.198  0.00  0.00    +0.000 C 
ATOM      7  C   UNL     1     -13.449   6.873  25.788  0.00  0.00    +0.000 C 
ENDBRANCH   5   7
ENDBRANCH   1   5
TORSDOF 3
ENDMDL
MODEL 2
REMARK VINA RESULT:    -3.564      1.228      1.708
REMARK INTER + INTRA:          -4.301
REMARK INTER:                  -4.235
REMARK INTRA:                  -0.066
REMARK UNBOUND:                -0.111
REMARK  Name = C:\Users\sofiya chavarekar\OneDrive\Assignment- Module 1\PROJECT(AI-based drug target identification for SDH-related rare disorders)\Data\Ligands\PDB\Ligand_0088.pdb
REMARK  5 active torsions:
REMARK  status: ('A' for Active; 'I' for Inactive)
REMARK    1  A    between atoms: C_1  and  C_2
REMARK    2  A    between atoms: C_2  and  O_3
REMARK    3  A    between atoms: O_3  and  C_4
REMARK    4  A    between atoms: C_4  and  C_6
REMARK    5  A    between atoms: C_6  and  C_7
REMARK                            x       y       z     vdW  Elec       q    Type
REMARK                         _______ _______ _______ _____ _____    ______ ____
ROOT
ATOM      1  C   UNL     1     -12.711   6.767  25.797  0.00  0.00    +0.000 C 
ATOM      2  O   UNL     1     -12.672   7.074  24.614  0.00  0.00    +0.000 OA
ENDROOT
BRANCH   1   3
ATOM      3  C   UNL     1     -11.991   5.592  26.416  0.00  0.00    +0.000 C 
ATOM      4  C   UNL     1     -10.649   5.334  25.751  0.00  0.00    +0.000 C 
ENDBRANCH   1   3
BRANCH   1   5
ATOM      5  O   UNL     1     -13.428   7.422  26.753  0.00  0.00    +0.000 OA
BRANCH   5   7
ATOM      6  C   UNL     1     -14.653   9.490  26.378  0.00  0.00    +0.000 C 
ATOM      7  C   UNL     1     -14.681   7.974  26.321  0.00  0.00    +0.000 C 
ENDBRANCH   5   7
ENDBRANCH   1   5
TORSDOF 3
ENDMDL
MODEL 3
REMARK VINA RESULT:    -3.477      8.593      9.775
REMARK INTER + INTRA:          -4.198
REMARK INTER:                  -4.101
REMARK INTRA:                  -0.097
REMARK UNBOUND:                -0.111
REMARK  Name = C:\Users\sofiya chavarekar\OneDrive\Assignment- Module 1\PROJECT(AI-based drug target identification for SDH-related rare disorders)\Data\Ligands\PDB\Ligand_0088.pdb
REMARK  5 active torsions:
REMARK  status: ('A' for Active; 'I' for Inactive)
REMARK    1  A    between atoms: C_1  and  C_2
REMARK    2  A    between atoms: C_2  and  O_3
REMARK    3  A    between atoms: O_3  and  C_4
REMARK    4  A    between atoms: C_4  and  C_6
REMARK    5  A    between atoms: C_6  and  C_7
REMARK                            x       y       z     vdW  Elec       q    Type
REMARK                         _______ _______ _______ _____ _____    ______ ____
ROOT
ATOM      1  C   UNL     1     -13.151  -1.134  30.242  0.00  0.00    +0.000 C 
ATOM      2  O   UNL     1     -13.309  -1.987  31.105  0.00  0.00    +0.000 OA
ENDROOT
BRANCH   1   3
ATOM      3  C   UNL     1     -14.261  -0.451  29.481  0.00  0.00    +0.000 C 
ATOM      4  C   UNL     1     -15.519  -0.304  30.322  0.00  0.00    +0.000 C 
ENDBRANCH   1   3
BRANCH   1   5
ATOM      5  O   UNL     1     -11.944  -0.673  29.808  0.00  0.00    +0.000 OA
BRANCH   5   7
ATOM      6  C   UNL     1     -10.495  -2.327  28.767  0.00  0.00    +0.000 C 
ATOM      7  C   UNL     1     -11.491  -1.203  28.552  0.00  0.00    +0.000 C 
ENDBRANCH   5   7
ENDBRANCH   1   5
TORSDOF 3
ENDMDL
MODEL 4
REMARK VINA RESULT:    -3.388      2.322      3.196
REMARK INTER + INTRA:          -4.094
REMARK INTER:                  -3.916
REMARK INTRA:                  -0.177
REMARK UNBOUND:                -0.111
REMARK  Name = C:\Users\sofiya chavarekar\OneDrive\Assignment- Module 1\PROJECT(AI-based drug target identification for SDH-related rare disorders)\Data\Ligands\PDB\Ligand_0088.pdb
REMARK  5 active torsions:
REMARK  status: ('A' for Active; 'I' for Inactive)
REMARK    1  A    between atoms: C_1  and  C_2
REMARK    2  A    between atoms: C_2  and  O_3
REMARK    3  A    between atoms: O_3  and  C_4
REMARK    4  A    between atoms: C_4  and  C_6
REMARK    5  A    between atoms: C_6  and  C_7
REMARK                            x       y       z     vdW  Elec       q    Type
REMARK                         _______ _______ _______ _____ _____    ______ ____
ROOT
ATOM      1  C   UNL     1     -13.269   7.051  26.581  0.00  0.00    +0.000 C 
ATOM      2  O   UNL     1     -14.025   8.001  26.727  0.00  0.00    +0.000 OA
ENDROOT
BRANCH   1   3
ATOM      3  C   UNL     1     -12.499   6.739  25.320  0.00  0.00    +0.000 C 
ATOM      4  C   UNL     1     -11.174   6.055  25.618  0.00  0.00    +0.000 C 
ENDBRANCH   1   3
BRANCH   1   5
ATOM      5  O   UNL     1     -13.010   6.103  27.525  0.00  0.00    +0.000 OA
BRANCH   5   7
ATOM      6  C   UNL     1     -13.735   3.795  27.265  0.00  0.00    +0.000 C 
ATOM      7  C   UNL     1     -14.077   5.178  27.787  0.00  0.00    +0.000 C 
ENDBRANCH   5   7
ENDBRANCH   1   5
TORSDOF 3
ENDMDL
MODEL 5
REMARK VINA RESULT:    -3.212      8.613      9.206
REMARK INTER + INTRA:          -3.886
REMARK INTER:                  -3.785
REMARK INTRA:                  -0.101
REMARK UNBOUND:                -0.111
REMARK  Name = C:\Users\sofiya chavarekar\OneDrive\Assignment- Module 1\PROJECT(AI-based drug target identification for SDH-related rare disorders)\Data\Ligands\PDB\Ligand_0088.pdb
REMARK  5 active torsions:
REMARK  status: ('A' for Active; 'I' for Inactive)
REMARK    1  A    between atoms: C_1  and  C_2
REMARK    2  A    between atoms: C_2  and  O_3
REMARK    3  A    between atoms: O_3  and  C_4
REMARK    4  A    between atoms: C_4  and  C_6
REMARK    5  A    between atoms: C_6  and  C_7
REMARK                            x       y       z     vdW  Elec       q    Type
REMARK                         _______ _______ _______ _____ _____    ______ ____
ROOT
ATOM      1  C   UNL     1     -12.766  -1.444  30.239  0.00  0.00    +0.000 C 
ATOM      2  O   UNL     1     -12.530  -2.094  31.249  0.00  0.00    +0.000 OA
ENDROOT
BRANCH   1   3
ATOM      3  C   UNL     1     -11.838  -1.307  29.056  0.00  0.00    +0.000 C 
ATOM      4  C   UNL     1     -10.684  -2.293  29.122  0.00  0.00    +0.000 C 
ENDBRANCH   1   3
BRANCH   1   5
ATOM      5  O   UNL     1     -13.899  -0.718  30.022  0.00  0.00    +0.000 OA
BRANCH   5   7
ATOM      6  C   UNL     1     -15.657  -0.147  28.440  0.00  0.00    +0.000 C 
ATOM      7  C   UNL     1     -14.174  -0.389  28.651  0.00  0.00    +0.000 C 
ENDBRANCH   5   7
ENDBRANCH   1   5
TORSDOF 3
ENDMDL
MODEL 6
REMARK VINA RESULT:    -3.170      1.228      3.591
REMARK INTER + INTRA:          -3.837
REMARK INTER:                  -3.752
REMARK INTRA:                  -0.085
REMARK UNBOUND:                -0.111
REMARK  Name = C:\Users\sofiya chavarekar\OneDrive\Assignment- Module 1\PROJECT(AI-based drug target identification for SDH-related rare disorders)\Data\Ligands\PDB\Ligand_0088.pdb
REMARK  5 active torsions:
REMARK  status: ('A' for Active; 'I' for Inactive)
REMARK    1  A    between atoms: C_1  and  C_2
REMARK    2  A    between atoms: C_2  and  O_3
REMARK    3  A    between atoms: O_3  and  C_4
REMARK    4  A    between atoms: C_4  and  C_6
REMARK    5  A    between atoms: C_6  and  C_7
REMARK                            x       y       z     vdW  Elec       q    Type
REMARK                         _______ _______ _______ _____ _____    ______ ____
ROOT
ATOM      1  C   UNL     1     -13.192   6.754  25.323  0.00  0.00    +0.000 C 
ATOM      2  O   UNL     1     -12.700   7.330  24.363  0.00  0.00    +0.000 OA
ENDROOT
BRANCH   1   3
ATOM      3  C   UNL     1     -14.420   7.208  26.075  0.00  0.00    +0.000 C 
ATOM      4  C   UNL     1     -14.423   8.711  26.303  0.00  0.00    +0.000 C 
ENDBRANCH   1   3
BRANCH   1   5
ATOM      5  O   UNL     1     -12.702   5.614  25.888  0.00  0.00    +0.000 OA
BRANCH   5   7
ATOM      6  C   UNL     1     -10.354   4.989  25.779  0.00  0.00    +0.000 C 
ATOM      7  C   UNL     1     -11.429   5.742  26.541  0.00  0.00    +0.000 C 
ENDBRANCH   5   7
ENDBRANCH   1   5
TORSDOF 3
ENDMDL
MODEL 7
REMARK VINA RESULT:    -2.819      2.837      3.989
REMARK INTER + INTRA:          -3.425
REMARK INTER:                  -3.270
REMARK INTRA:                  -0.155
REMARK UNBOUND:                -0.111
REMARK  Name = C:\Users\sofiya chavarekar\OneDrive\Assignment- Module 1\PROJECT(AI-based drug target identification for SDH-related rare disorders)\Data\Ligands\PDB\Ligand_0088.pdb
REMARK  5 active torsions:
REMARK  status: ('A' for Active; 'I' for Inactive)
REMARK    1  A    between atoms: C_1  and  C_2
REMARK    2  A    between atoms: C_2  and  O_3
REMARK    3  A    between atoms: O_3  and  C_4
REMARK    4  A    between atoms: C_4  and  C_6
REMARK    5  A    between atoms: C_6  and  C_7
REMARK                            x       y       z     vdW  Elec       q    Type
REMARK                         _______ _______ _______ _____ _____    ______ ____
ROOT
ATOM      1  C   UNL     1     -14.213   5.633  27.282  0.00  0.00    +0.000 C 
ATOM      2  O   UNL     1     -15.087   5.536  26.431  0.00  0.00    +0.000 OA
ENDROOT
BRANCH   1   3
ATOM      3  C   UNL     1     -14.133   4.810  28.544  0.00  0.00    +0.000 C 
ATOM      4  C   UNL     1     -14.211   3.319  28.257  0.00  0.00    +0.000 C 
ENDBRANCH   1   3
BRANCH   1   5
ATOM      5  O   UNL     1     -13.175   6.516  27.242  0.00  0.00    +0.000 OA
BRANCH   5   7
ATOM      6  C   UNL     1     -11.249   5.633  26.046  0.00  0.00    +0.000 C 
ATOM      7  C   UNL     1     -12.447   6.563  26.004  0.00  0.00    +0.000 C 
ENDBRANCH   5   7
ENDBRANCH   1   5
TORSDOF 3
ENDMDL
MODEL 8
REMARK VINA RESULT:    -2.606     11.179     11.956
REMARK INTER + INTRA:          -3.175
REMARK INTER:                  -3.033
REMARK INTRA:                  -0.141
REMARK UNBOUND:                -0.111
REMARK  Name = C:\Users\sofiya chavarekar\OneDrive\Assignment- Module 1\PROJECT(AI-based drug target identification for SDH-related rare disorders)\Data\Ligands\PDB\Ligand_0088.pdb
REMARK  5 active torsions:
REMARK  status: ('A' for Active; 'I' for Inactive)
REMARK    1  A    between atoms: C_1  and  C_2
REMARK    2  A    between atoms: C_2  and  O_3
REMARK    3  A    between atoms: O_3  and  C_4
REMARK    4  A    between atoms: C_4  and  C_6
REMARK    5  A    between atoms: C_6  and  C_7
REMARK                            x       y       z     vdW  Elec       q    Type
REMARK                         _______ _______ _______ _____ _____    ______ ____
ROOT
ATOM      1  C   UNL     1     -18.107   0.072  33.143  0.00  0.00    +0.000 C 
ATOM      2  O   UNL     1     -19.191   0.453  33.563  0.00  0.00    +0.000 OA
ENDROOT
BRANCH   1   3
ATOM      3  C   UNL     1     -16.859   0.918  33.064  0.00  0.00    +0.000 C 
ATOM      4  C   UNL     1     -17.113   2.243  32.366  0.00  0.00    +0.000 C 
ENDBRANCH   1   3
BRANCH   1   5
ATOM      5  O   UNL     1     -17.850  -1.175  32.657  0.00  0.00    +0.000 OA
BRANCH   5   7
ATOM      6  C   UNL     1     -19.178  -1.799  30.717  0.00  0.00    +0.000 C 
ATOM      7  C   UNL     1     -17.841  -1.295  31.226  0.00  0.00    +0.000 C 
ENDBRANCH   5   7
ENDBRANCH   1   5
TORSDOF 3
ENDMDL
MODEL 9
REMARK VINA RESULT:    -2.526     12.543     13.111
REMARK INTER + INTRA:          -3.080
REMARK INTER:                  -2.875
REMARK INTRA:                  -0.206
REMARK UNBOUND:                -0.111
REMARK  Name = C:\Users\sofiya chavarekar\OneDrive\Assignment- Module 1\PROJECT(AI-based drug target identification for SDH-related rare disorders)\Data\Ligands\PDB\Ligand_0088.pdb
REMARK  5 active torsions:
REMARK  status: ('A' for Active; 'I' for Inactive)
REMARK    1  A    between atoms: C_1  and  C_2
REMARK    2  A    between atoms: C_2  and  O_3
REMARK    3  A    between atoms: O_3  and  C_4
REMARK    4  A    between atoms: C_4  and  C_6
REMARK    5  A    between atoms: C_6  and  C_7
REMARK                            x       y       z     vdW  Elec       q    Type
REMARK                         _______ _______ _______ _____ _____    ______ ____
ROOT
ATOM      1  C   UNL     1     -20.862  -2.199  19.878  0.00  0.00    +0.000 C 
ATOM      2  O   UNL     1     -20.855  -1.977  18.674  0.00  0.00    +0.000 OA
ENDROOT
BRANCH   1   3
ATOM      3  C   UNL     1     -20.056  -3.272  20.569  0.00  0.00    +0.000 C 
ATOM      4  C   UNL     1     -19.149  -2.697  21.645  0.00  0.00    +0.000 C 
ENDBRANCH   1   3
BRANCH   1   5
ATOM      5  O   UNL     1     -21.616  -1.528  20.794  0.00  0.00    +0.000 OA
BRANCH   5   7
ATOM      6  C   UNL     1     -20.691   0.706  21.065  0.00  0.00    +0.000 C 
ATOM      7  C   UNL     1     -21.831  -0.135  20.520  0.00  0.00    +0.000 C 
ENDBRANCH   5   7
ENDBRANCH   1   5
TORSDOF 3
ENDMDL
