MODEL 1
REMARK VINA RESULT:    -5.041      0.000      0.000
REMARK INTER + INTRA:          -5.513
REMARK INTER:                  -5.483
REMARK INTRA:                  -0.030
REMARK UNBOUND:                -0.030
REMARK  Name = C:\Users\sofiya chavarekar\OneDrive\Assignment- Module 1\PROJECT(AI-based drug target identification for SDH-related rare disorders)\Data\Ligands\PDB\Ligand_0082.pdb
REMARK  3 active torsions:
REMARK  status: ('A' for Active; 'I' for Inactive)
REMARK    1  A    between atoms: C_1  and  C_2
REMARK    2  A    between atoms: C_6  and  C_7
REMARK    3  A    between atoms: C_7  and  O_9
REMARK                            x       y       z     vdW  Elec       q    Type
REMARK                         _______ _______ _______ _____ _____    ______ ____
ROOT
ATOM      1  C   UNL     1     -14.070   4.330  27.705  0.00  0.00    +0.000 C 
ATOM      2  C   UNL     1     -13.073   5.080  26.871  0.00  0.00    +0.000 A 
ATOM      3  C   UNL     1     -13.327   6.392  26.455  0.00  0.00    +0.000 A 
ATOM      4  C   UNL     1     -12.392   7.086  25.685  0.00  0.00    +0.000 A 
ATOM      5  C   UNL     1     -11.191   6.474  25.322  0.00  0.00    +0.000 A 
ATOM      6  C   UNL     1     -10.924   5.162  25.728  0.00  0.00    +0.000 A 
ATOM      7  C   UNL     1     -11.866   4.468  26.501  0.00  0.00    +0.000 A 
ENDROOT
BRANCH   6   8
ATOM      8  C   UNL     1      -9.663   4.470  25.364  0.00  0.00    +0.000 C 
ATOM      9  O   UNL     1      -9.243   4.296  24.235  0.00  0.00    +0.000 OA
BRANCH   8  10
ATOM     10  O   UNL     1      -8.982   4.028  26.437  0.00  0.00    +0.000 OA
ATOM     11  H   UNL     1      -9.238   3.084  26.505  0.00  0.00    +0.000 HD
ENDBRANCH   8  10
ENDBRANCH   6   8
TORSDOF 2
ENDMDL
MODEL 2
REMARK VINA RESULT:    -4.956      3.655      4.907
REMARK INTER + INTRA:          -5.421
REMARK INTER:                  -5.392
REMARK INTRA:                  -0.029
REMARK UNBOUND:                -0.030
REMARK  Name = C:\Users\sofiya chavarekar\OneDrive\Assignment- Module 1\PROJECT(AI-based drug target identification for SDH-related rare disorders)\Data\Ligands\PDB\Ligand_0082.pdb
REMARK  3 active torsions:
REMARK  status: ('A' for Active; 'I' for Inactive)
REMARK    1  A    between atoms: C_1  and  C_2
REMARK    2  A    between atoms: C_6  and  C_7
REMARK    3  A    between atoms: C_7  and  O_9
REMARK                            x       y       z     vdW  Elec       q    Type
REMARK                         _______ _______ _______ _____ _____    ______ ____
ROOT
ATOM      1  C   UNL     1     -10.809   5.517  25.750  0.00  0.00    +0.000 C 
ATOM      2  C   UNL     1     -12.225   5.804  26.154  0.00  0.00    +0.000 A 
ATOM      3  C   UNL     1     -13.075   4.774  26.574  0.00  0.00    +0.000 A 
ATOM      4  C   UNL     1     -14.389   5.050  26.955  0.00  0.00    +0.000 A 
ATOM      5  C   UNL     1     -14.869   6.360  26.920  0.00  0.00    +0.000 A 
ATOM      6  C   UNL     1     -14.032   7.399  26.500  0.00  0.00    +0.000 A 
ATOM      7  C   UNL     1     -12.713   7.119  26.118  0.00  0.00    +0.000 A 
ENDROOT
BRANCH   6   8
ATOM      8  C   UNL     1     -14.499   8.807  26.445  0.00  0.00    +0.000 C 
ATOM      9  O   UNL     1     -14.876   9.473  27.391  0.00  0.00    +0.000 OA
BRANCH   8  10
ATOM     10  O   UNL     1     -14.471   9.318  25.200  0.00  0.00    +0.000 OA
ATOM     11  H   UNL     1     -13.973   8.650  24.683  0.00  0.00    +0.000 HD
ENDBRANCH   8  10
ENDBRANCH   6   8
TORSDOF 2
ENDMDL
MODEL 3
REMARK VINA RESULT:    -4.836      2.879      3.951
REMARK INTER + INTRA:          -5.290
REMARK INTER:                  -5.257
REMARK INTRA:                  -0.033
REMARK UNBOUND:                -0.030
REMARK  Name = C:\Users\sofiya chavarekar\OneDrive\Assignment- Module 1\PROJECT(AI-based drug target identification for SDH-related rare disorders)\Data\Ligands\PDB\Ligand_0082.pdb
REMARK  3 active torsions:
REMARK  status: ('A' for Active; 'I' for Inactive)
REMARK    1  A    between atoms: C_1  and  C_2
REMARK    2  A    between atoms: C_6  and  C_7
REMARK    3  A    between atoms: C_7  and  O_9
REMARK                            x       y       z     vdW  Elec       q    Type
REMARK                         _______ _______ _______ _____ _____    ______ ____
ROOT
ATOM      1  C   UNL     1      -9.716   4.444  25.914  0.00  0.00    +0.000 C 
ATOM      2  C   UNL     1     -10.898   5.355  25.761  0.00  0.00    +0.000 A 
ATOM      3  C   UNL     1     -10.877   6.409  24.841  0.00  0.00    +0.000 A 
ATOM      4  C   UNL     1     -11.983   7.250  24.699  0.00  0.00    +0.000 A 
ATOM      5  C   UNL     1     -13.123   7.044  25.477  0.00  0.00    +0.000 A 
ATOM      6  C   UNL     1     -13.158   5.995  26.403  0.00  0.00    +0.000 A 
ATOM      7  C   UNL     1     -12.045   5.154  26.542  0.00  0.00    +0.000 A 
ENDROOT
BRANCH   6   8
ATOM      8  C   UNL     1     -14.347   5.740  27.252  0.00  0.00    +0.000 C 
ATOM      9  O   UNL     1     -15.509   5.798  26.893  0.00  0.00    +0.000 OA
BRANCH   8  10
ATOM     10  O   UNL     1     -14.025   5.421  28.520  0.00  0.00    +0.000 OA
ATOM     11  H   UNL     1     -14.788   4.887  28.828  0.00  0.00    +0.000 HD
ENDBRANCH   8  10
ENDBRANCH   6   8
TORSDOF 2
ENDMDL
MODEL 4
REMARK VINA RESULT:    -4.749      2.761      3.840
REMARK INTER + INTRA:          -5.195
REMARK INTER:                  -5.156
REMARK INTRA:                  -0.039
REMARK UNBOUND:                -0.030
REMARK  Name = C:\Users\sofiya chavarekar\OneDrive\Assignment- Module 1\PROJECT(AI-based drug target identification for SDH-related rare disorders)\Data\Ligands\PDB\Ligand_0082.pdb
REMARK  3 active torsions:
REMARK  status: ('A' for Active; 'I' for Inactive)
REMARK    1  A    between atoms: C_1  and  C_2
REMARK    2  A    between atoms: C_6  and  C_7
REMARK    3  A    between atoms: C_7  and  O_9
REMARK                            x       y       z     vdW  Elec       q    Type
REMARK                         _______ _______ _______ _____ _____    ______ ____
ROOT
ATOM      1  C   UNL     1      -9.609   3.602  26.100  0.00  0.00    +0.000 C 
ATOM      2  C   UNL     1     -10.388   4.823  25.710  0.00  0.00    +0.000 A 
ATOM      3  C   UNL     1     -10.025   5.579  24.590  0.00  0.00    +0.000 A 
ATOM      4  C   UNL     1     -10.759   6.710  24.229  0.00  0.00    +0.000 A 
ATOM      5  C   UNL     1     -11.865   7.099  24.986  0.00  0.00    +0.000 A 
ATOM      6  C   UNL     1     -12.238   6.355  26.111  0.00  0.00    +0.000 A 
ATOM      7  C   UNL     1     -11.499   5.219  26.470  0.00  0.00    +0.000 A 
ENDROOT
BRANCH   6   8
ATOM      8  C   UNL     1     -13.405   6.731  26.947  0.00  0.00    +0.000 C 
ATOM      9  O   UNL     1     -14.082   7.735  26.820  0.00  0.00    +0.000 OA
BRANCH   8  10
ATOM     10  O   UNL     1     -13.672   5.827  27.907  0.00  0.00    +0.000 OA
ATOM     11  H   UNL     1     -12.845   5.305  27.974  0.00  0.00    +0.000 HD
ENDBRANCH   8  10
ENDBRANCH   6   8
TORSDOF 2
ENDMDL
MODEL 5
REMARK VINA RESULT:    -4.675      6.418      7.781
REMARK INTER + INTRA:          -5.115
REMARK INTER:                  -5.078
REMARK INTRA:                  -0.037
REMARK UNBOUND:                -0.030
REMARK  Name = C:\Users\sofiya chavarekar\OneDrive\Assignment- Module 1\PROJECT(AI-based drug target identification for SDH-related rare disorders)\Data\Ligands\PDB\Ligand_0082.pdb
REMARK  3 active torsions:
REMARK  status: ('A' for Active; 'I' for Inactive)
REMARK    1  A    between atoms: C_1  and  C_2
REMARK    2  A    between atoms: C_6  and  C_7
REMARK    3  A    between atoms: C_7  and  O_9
REMARK                            x       y       z     vdW  Elec       q    Type
REMARK                         _______ _______ _______ _____ _____    ______ ____
ROOT
ATOM      1  C   UNL     1     -15.615   0.930  27.298  0.00  0.00    +0.000 C 
ATOM      2  C   UNL     1     -15.325   0.293  28.625  0.00  0.00    +0.000 A 
ATOM      3  C   UNL     1     -16.282   0.292  29.646  0.00  0.00    +0.000 A 
ATOM      4  C   UNL     1     -16.007  -0.308  30.876  0.00  0.00    +0.000 A 
ATOM      5  C   UNL     1     -14.770  -0.915  31.099  0.00  0.00    +0.000 A 
ATOM      6  C   UNL     1     -13.802  -0.920  30.088  0.00  0.00    +0.000 A 
ATOM      7  C   UNL     1     -14.082  -0.316  28.854  0.00  0.00    +0.000 A 
ENDROOT
BRANCH   6   8
ATOM      8  C   UNL     1     -12.473  -1.552  30.280  0.00  0.00    +0.000 C 
ATOM      9  O   UNL     1     -11.505  -1.413  29.556  0.00  0.00    +0.000 OA
BRANCH   8  10
ATOM     10  O   UNL     1     -12.419  -2.331  31.376  0.00  0.00    +0.000 OA
ATOM     11  H   UNL     1     -12.707  -1.737  32.101  0.00  0.00    +0.000 HD
ENDBRANCH   8  10
ENDBRANCH   6   8
TORSDOF 2
ENDMDL
MODEL 6
REMARK VINA RESULT:    -4.667      3.007      4.117
REMARK INTER + INTRA:          -5.106
REMARK INTER:                  -5.075
REMARK INTRA:                  -0.031
REMARK UNBOUND:                -0.030
REMARK  Name = C:\Users\sofiya chavarekar\OneDrive\Assignment- Module 1\PROJECT(AI-based drug target identification for SDH-related rare disorders)\Data\Ligands\PDB\Ligand_0082.pdb
REMARK  3 active torsions:
REMARK  status: ('A' for Active; 'I' for Inactive)
REMARK    1  A    between atoms: C_1  and  C_2
REMARK    2  A    between atoms: C_6  and  C_7
REMARK    3  A    between atoms: C_7  and  O_9
REMARK                            x       y       z     vdW  Elec       q    Type
REMARK                         _______ _______ _______ _____ _____    ______ ____
ROOT
ATOM      1  C   UNL     1     -10.152   4.845  25.906  0.00  0.00    +0.000 C 
ATOM      2  C   UNL     1     -11.482   5.534  25.994  0.00  0.00    +0.000 A 
ATOM      3  C   UNL     1     -11.746   6.682  25.238  0.00  0.00    +0.000 A 
ATOM      4  C   UNL     1     -12.988   7.315  25.320  0.00  0.00    +0.000 A 
ATOM      5  C   UNL     1     -13.980   6.805  26.159  0.00  0.00    +0.000 A 
ATOM      6  C   UNL     1     -13.729   5.659  26.922  0.00  0.00    +0.000 A 
ATOM      7  C   UNL     1     -12.481   5.027  26.837  0.00  0.00    +0.000 A 
ENDROOT
BRANCH   6   8
ATOM      8  C   UNL     1     -14.753   5.083  27.828  0.00  0.00    +0.000 C 
ATOM      9  O   UNL     1     -15.907   4.831  27.536  0.00  0.00    +0.000 OA
BRANCH   8  10
ATOM     10  O   UNL     1     -14.280   4.846  29.067  0.00  0.00    +0.000 OA
ATOM     11  H   UNL     1     -13.815   3.987  28.979  0.00  0.00    +0.000 HD
ENDBRANCH   8  10
ENDBRANCH   6   8
TORSDOF 2
ENDMDL
MODEL 7
REMARK VINA RESULT:    -4.611      3.331      4.194
REMARK INTER + INTRA:          -5.045
REMARK INTER:                  -5.013
REMARK INTRA:                  -0.032
REMARK UNBOUND:                -0.030
REMARK  Name = C:\Users\sofiya chavarekar\OneDrive\Assignment- Module 1\PROJECT(AI-based drug target identification for SDH-related rare disorders)\Data\Ligands\PDB\Ligand_0082.pdb
REMARK  3 active torsions:
REMARK  status: ('A' for Active; 'I' for Inactive)
REMARK    1  A    between atoms: C_1  and  C_2
REMARK    2  A    between atoms: C_6  and  C_7
REMARK    3  A    between atoms: C_7  and  O_9
REMARK                            x       y       z     vdW  Elec       q    Type
REMARK                         _______ _______ _______ _____ _____    ______ ____
ROOT
ATOM      1  C   UNL     1     -14.053   3.270  27.472  0.00  0.00    +0.000 C 
ATOM      2  C   UNL     1     -13.398   4.507  26.934  0.00  0.00    +0.000 A 
ATOM      3  C   UNL     1     -12.085   4.472  26.451  0.00  0.00    +0.000 A 
ATOM      4  C   UNL     1     -11.483   5.626  25.946  0.00  0.00    +0.000 A 
ATOM      5  C   UNL     1     -12.189   6.830  25.919  0.00  0.00    +0.000 A 
ATOM      6  C   UNL     1     -13.501   6.881  26.401  0.00  0.00    +0.000 A 
ATOM      7  C   UNL     1     -14.102   5.720  26.907  0.00  0.00    +0.000 A 
ENDROOT
BRANCH   6   8
ATOM      8  C   UNL     1     -14.290   8.138  26.394  0.00  0.00    +0.000 C 
ATOM      9  O   UNL     1     -14.982   8.553  27.305  0.00  0.00    +0.000 OA
BRANCH   8  10
ATOM     10  O   UNL     1     -14.173   8.822  25.240  0.00  0.00    +0.000 OA
ATOM     11  H   UNL     1     -13.215   9.021  25.182  0.00  0.00    +0.000 HD
ENDBRANCH   8  10
ENDBRANCH   6   8
TORSDOF 2
ENDMDL
MODEL 8
REMARK VINA RESULT:    -4.533      6.253      7.482
REMARK INTER + INTRA:          -4.960
REMARK INTER:                  -4.922
REMARK INTRA:                  -0.039
REMARK UNBOUND:                -0.030
REMARK  Name = C:\Users\sofiya chavarekar\OneDrive\Assignment- Module 1\PROJECT(AI-based drug target identification for SDH-related rare disorders)\Data\Ligands\PDB\Ligand_0082.pdb
REMARK  3 active torsions:
REMARK  status: ('A' for Active; 'I' for Inactive)
REMARK    1  A    between atoms: C_1  and  C_2
REMARK    2  A    between atoms: C_6  and  C_7
REMARK    3  A    between atoms: C_7  and  O_9
REMARK                            x       y       z     vdW  Elec       q    Type
REMARK                         _______ _______ _______ _____ _____    ______ ____
ROOT
ATOM      1  C   UNL     1     -17.146   0.150  30.832  0.00  0.00    +0.000 C 
ATOM      2  C   UNL     1     -15.837   0.139  30.099  0.00  0.00    +0.000 A 
ATOM      3  C   UNL     1     -15.626   0.974  28.996  0.00  0.00    +0.000 A 
ATOM      4  C   UNL     1     -14.403   0.964  28.322  0.00  0.00    +0.000 A 
ATOM      5  C   UNL     1     -13.377   0.117  28.745  0.00  0.00    +0.000 A 
ATOM      6  C   UNL     1     -13.575  -0.725  29.845  0.00  0.00    +0.000 A 
ATOM      7  C   UNL     1     -14.804  -0.712  30.519  0.00  0.00    +0.000 A 
ENDROOT
BRANCH   6   8
ATOM      8  C   UNL     1     -12.514  -1.643  30.329  0.00  0.00    +0.000 C 
ATOM      9  O   UNL     1     -11.405  -1.771  29.846  0.00  0.00    +0.000 OA
BRANCH   8  10
ATOM     10  O   UNL     1     -12.895  -2.360  31.403  0.00  0.00    +0.000 OA
ATOM     11  H   UNL     1     -13.170  -3.221  31.024  0.00  0.00    +0.000 HD
ENDBRANCH   8  10
ENDBRANCH   6   8
TORSDOF 2
ENDMDL
MODEL 9
REMARK VINA RESULT:    -4.471      1.501      1.994
REMARK INTER + INTRA:          -4.892
REMARK INTER:                  -4.853
REMARK INTRA:                  -0.039
REMARK UNBOUND:                -0.030
REMARK  Name = C:\Users\sofiya chavarekar\OneDrive\Assignment- Module 1\PROJECT(AI-based drug target identification for SDH-related rare disorders)\Data\Ligands\PDB\Ligand_0082.pdb
REMARK  3 active torsions:
REMARK  status: ('A' for Active; 'I' for Inactive)
REMARK    1  A    between atoms: C_1  and  C_2
REMARK    2  A    between atoms: C_6  and  C_7
REMARK    3  A    between atoms: C_7  and  O_9
REMARK                            x       y       z     vdW  Elec       q    Type
REMARK                         _______ _______ _______ _____ _____    ______ ____
ROOT
ATOM      1  C   UNL     1     -14.231   4.353  28.477  0.00  0.00    +0.000 C 
ATOM      2  C   UNL     1     -13.941   5.377  27.421  0.00  0.00    +0.000 A 
ATOM      3  C   UNL     1     -14.884   6.358  27.093  0.00  0.00    +0.000 A 
ATOM      4  C   UNL     1     -14.605   7.312  26.113  0.00  0.00    +0.000 A 
ATOM      5  C   UNL     1     -13.377   7.296  25.449  0.00  0.00    +0.000 A 
ATOM      6  C   UNL     1     -12.425   6.320  25.764  0.00  0.00    +0.000 A 
ATOM      7  C   UNL     1     -12.710   5.363  26.749  0.00  0.00    +0.000 A 
ENDROOT
BRANCH   6   8
ATOM      8  C   UNL     1     -11.108   6.263  25.084  0.00  0.00    +0.000 C 
ATOM      9  O   UNL     1     -10.689   7.062  24.267  0.00  0.00    +0.000 OA
BRANCH   8  10
ATOM     10  O   UNL     1     -10.371   5.201  25.461  0.00  0.00    +0.000 OA
ATOM     11  H   UNL     1      -9.789   5.558  26.165  0.00  0.00    +0.000 HD
ENDBRANCH   8  10
ENDBRANCH   6   8
TORSDOF 2
ENDMDL
