MODEL 1
REMARK VINA RESULT:    -5.947      0.000      0.000
REMARK INTER + INTRA:          -5.947
REMARK INTER:                  -5.947
REMARK INTRA:                   0.000
REMARK UNBOUND:                 0.000
REMARK  Name = C:\Users\sofiya chavarekar\OneDrive\Assignment- Module 1\PROJECT(AI-based drug target identification for SDH-related rare disorders)\Data\Ligands\PDB\Ligand_0016.pdb
REMARK  0 active torsions:
REMARK  status: ('A' for Active; 'I' for Inactive)
REMARK                            x       y       z     vdW  Elec       q    Type
REMARK                         _______ _______ _______ _____ _____    ______ ____
ROOT
ATOM      1  C   UNL     1     -17.227   7.604  27.190  0.00  0.00    +0.000 A 
ATOM      2  C   UNL     1     -17.192   6.494  28.029  0.00  0.00    +0.000 A 
ATOM      3  C   UNL     1     -16.053   5.687  28.067  0.00  0.00    +0.000 A 
ATOM      4  C   UNL     1     -14.935   5.982  27.270  0.00  0.00    +0.000 A 
ATOM      5  C   UNL     1     -13.781   5.181  27.299  0.00  0.00    +0.000 A 
ATOM      6  C   UNL     1     -12.662   5.478  26.503  0.00  0.00    +0.000 A 
ATOM      7  C   UNL     1     -11.509   4.677  26.529  0.00  0.00    +0.000 A 
ATOM      8  C   UNL     1     -10.407   4.985  25.731  0.00  0.00    +0.000 A 
ATOM      9  C   UNL     1     -10.441   6.101  24.899  0.00  0.00    +0.000 A 
ATOM     10  C   UNL     1     -11.579   6.907  24.863  0.00  0.00    +0.000 A 
ATOM     11  C   UNL     1     -12.698   6.609  25.658  0.00  0.00    +0.000 A 
ATOM     12  C   UNL     1     -13.851   7.410  25.629  0.00  0.00    +0.000 A 
ATOM     13  C   UNL     1     -14.971   7.110  26.423  0.00  0.00    +0.000 A 
ATOM     14  C   UNL     1     -16.125   7.910  26.391  0.00  0.00    +0.000 A 
ENDROOT
TORSDOF 0
ENDMDL
MODEL 2
REMARK VINA RESULT:    -5.941      0.182      4.891
REMARK INTER + INTRA:          -5.941
REMARK INTER:                  -5.941
REMARK INTRA:                   0.000
REMARK UNBOUND:                 0.000
REMARK  Name = C:\Users\sofiya chavarekar\OneDrive\Assignment- Module 1\PROJECT(AI-based drug target identification for SDH-related rare disorders)\Data\Ligands\PDB\Ligand_0016.pdb
REMARK  0 active torsions:
REMARK  status: ('A' for Active; 'I' for Inactive)
REMARK                            x       y       z     vdW  Elec       q    Type
REMARK                         _______ _______ _______ _____ _____    ______ ____
ROOT
ATOM      1  C   UNL     1     -10.528   6.277  24.894  0.00  0.00    +0.000 A 
ATOM      2  C   UNL     1     -10.496   5.150  25.710  0.00  0.00    +0.000 A 
ATOM      3  C   UNL     1     -11.601   4.832  26.501  0.00  0.00    +0.000 A 
ATOM      4  C   UNL     1     -12.754   5.634  26.484  0.00  0.00    +0.000 A 
ATOM      5  C   UNL     1     -13.875   5.326  27.273  0.00  0.00    +0.000 A 
ATOM      6  C   UNL     1     -15.027   6.129  27.255  0.00  0.00    +0.000 A 
ATOM      7  C   UNL     1     -16.147   5.824  28.044  0.00  0.00    +0.000 A 
ATOM      8  C   UNL     1     -17.284   6.632  28.015  0.00  0.00    +0.000 A 
ATOM      9  C   UNL     1     -17.318   7.755  27.193  0.00  0.00    +0.000 A 
ATOM     10  C   UNL     1     -16.213   8.071  26.402  0.00  0.00    +0.000 A 
ATOM     11  C   UNL     1     -15.060   7.269  26.421  0.00  0.00    +0.000 A 
ATOM     12  C   UNL     1     -13.940   7.577  25.632  0.00  0.00    +0.000 A 
ATOM     13  C   UNL     1     -12.786   6.775  25.654  0.00  0.00    +0.000 A 
ATOM     14  C   UNL     1     -11.665   7.086  24.867  0.00  0.00    +0.000 A 
ENDROOT
TORSDOF 0
ENDMDL
MODEL 3
REMARK VINA RESULT:    -5.922      0.154      5.322
REMARK INTER + INTRA:          -5.922
REMARK INTER:                  -5.922
REMARK INTRA:                   0.000
REMARK UNBOUND:                 0.000
REMARK  Name = C:\Users\sofiya chavarekar\OneDrive\Assignment- Module 1\PROJECT(AI-based drug target identification for SDH-related rare disorders)\Data\Ligands\PDB\Ligand_0016.pdb
REMARK  0 active torsions:
REMARK  status: ('A' for Active; 'I' for Inactive)
REMARK                            x       y       z     vdW  Elec       q    Type
REMARK                         _______ _______ _______ _____ _____    ______ ____
ROOT
ATOM      1  C   UNL     1     -10.442   5.140  25.689  0.00  0.00    +0.000 A 
ATOM      2  C   UNL     1     -10.548   6.247  24.852  0.00  0.00    +0.000 A 
ATOM      3  C   UNL     1     -11.726   6.997  24.838  0.00  0.00    +0.000 A 
ATOM      4  C   UNL     1     -12.809   6.652  25.662  0.00  0.00    +0.000 A 
ATOM      5  C   UNL     1     -14.000   7.398  25.660  0.00  0.00    +0.000 A 
ATOM      6  C   UNL     1     -15.083   7.053  26.485  0.00  0.00    +0.000 A 
ATOM      7  C   UNL     1     -16.274   7.796  26.483  0.00  0.00    +0.000 A 
ATOM      8  C   UNL     1     -17.340   7.439  27.308  0.00  0.00    +0.000 A 
ATOM      9  C   UNL     1     -17.230   6.336  28.150  0.00  0.00    +0.000 A 
ATOM     10  C   UNL     1     -16.052   5.588  28.164  0.00  0.00    +0.000 A 
ATOM     11  C   UNL     1     -14.970   5.933  27.338  0.00  0.00    +0.000 A 
ATOM     12  C   UNL     1     -13.780   5.187  27.340  0.00  0.00    +0.000 A 
ATOM     13  C   UNL     1     -12.699   5.531  26.511  0.00  0.00    +0.000 A 
ATOM     14  C   UNL     1     -11.510   4.782  26.512  0.00  0.00    +0.000 A 
ENDROOT
TORSDOF 0
ENDMDL
MODEL 4
REMARK VINA RESULT:    -5.922      0.345      2.137
REMARK INTER + INTRA:          -5.922
REMARK INTER:                  -5.922
REMARK INTRA:                   0.000
REMARK UNBOUND:                 0.000
REMARK  Name = C:\Users\sofiya chavarekar\OneDrive\Assignment- Module 1\PROJECT(AI-based drug target identification for SDH-related rare disorders)\Data\Ligands\PDB\Ligand_0016.pdb
REMARK  0 active torsions:
REMARK  status: ('A' for Active; 'I' for Inactive)
REMARK                            x       y       z     vdW  Elec       q    Type
REMARK                         _______ _______ _______ _____ _____    ______ ____
ROOT
ATOM      1  C   UNL     1     -17.470   6.592  28.117  0.00  0.00    +0.000 A 
ATOM      2  C   UNL     1     -17.540   7.697  27.273  0.00  0.00    +0.000 A 
ATOM      3  C   UNL     1     -16.448   8.029  26.469  0.00  0.00    +0.000 A 
ATOM      4  C   UNL     1     -15.275   7.257  26.495  0.00  0.00    +0.000 A 
ATOM      5  C   UNL     1     -14.169   7.577  25.690  0.00  0.00    +0.000 A 
ATOM      6  C   UNL     1     -12.996   6.804  25.716  0.00  0.00    +0.000 A 
ATOM      7  C   UNL     1     -11.889   7.123  24.913  0.00  0.00    +0.000 A 
ATOM      8  C   UNL     1     -10.731   6.346  24.952  0.00  0.00    +0.000 A 
ATOM      9  C   UNL     1     -10.665   5.236  25.790  0.00  0.00    +0.000 A 
ATOM     10  C   UNL     1     -11.757   4.906  26.592  0.00  0.00    +0.000 A 
ATOM     11  C   UNL     1     -12.930   5.679  26.567  0.00  0.00    +0.000 A 
ATOM     12  C   UNL     1     -14.035   5.360  27.372  0.00  0.00    +0.000 A 
ATOM     13  C   UNL     1     -15.207   6.136  27.348  0.00  0.00    +0.000 A 
ATOM     14  C   UNL     1     -16.311   5.817  28.156  0.00  0.00    +0.000 A 
ENDROOT
TORSDOF 0
ENDMDL
MODEL 5
REMARK VINA RESULT:    -5.480      2.341      3.727
REMARK INTER + INTRA:          -5.480
REMARK INTER:                  -5.480
REMARK INTRA:                   0.000
REMARK UNBOUND:                 0.000
REMARK  Name = C:\Users\sofiya chavarekar\OneDrive\Assignment- Module 1\PROJECT(AI-based drug target identification for SDH-related rare disorders)\Data\Ligands\PDB\Ligand_0016.pdb
REMARK  0 active torsions:
REMARK  status: ('A' for Active; 'I' for Inactive)
REMARK                            x       y       z     vdW  Elec       q    Type
REMARK                         _______ _______ _______ _____ _____    ______ ____
ROOT
ATOM      1  C   UNL     1     -16.348   1.324  28.441  0.00  0.00    +0.000 A 
ATOM      2  C   UNL     1     -17.396   2.120  27.988  0.00  0.00    +0.000 A 
ATOM      3  C   UNL     1     -17.125   3.323  27.335  0.00  0.00    +0.000 A 
ATOM      4  C   UNL     1     -15.802   3.744  27.122  0.00  0.00    +0.000 A 
ATOM      5  C   UNL     1     -15.513   4.951  26.465  0.00  0.00    +0.000 A 
ATOM      6  C   UNL     1     -14.189   5.371  26.251  0.00  0.00    +0.000 A 
ATOM      7  C   UNL     1     -13.898   6.578  25.596  0.00  0.00    +0.000 A 
ATOM      8  C   UNL     1     -12.578   6.981  25.393  0.00  0.00    +0.000 A 
ATOM      9  C   UNL     1     -11.530   6.180  25.838  0.00  0.00    +0.000 A 
ATOM     10  C   UNL     1     -11.803   4.977  26.490  0.00  0.00    +0.000 A 
ATOM     11  C   UNL     1     -13.127   4.558  26.704  0.00  0.00    +0.000 A 
ATOM     12  C   UNL     1     -13.415   3.352  27.361  0.00  0.00    +0.000 A 
ATOM     13  C   UNL     1     -14.740   2.935  27.578  0.00  0.00    +0.000 A 
ATOM     14  C   UNL     1     -15.028   1.729  28.238  0.00  0.00    +0.000 A 
ENDROOT
TORSDOF 0
ENDMDL
MODEL 6
REMARK VINA RESULT:    -5.167      2.031      2.935
REMARK INTER + INTRA:          -5.167
REMARK INTER:                  -5.167
REMARK INTRA:                   0.000
REMARK UNBOUND:                 0.000
REMARK  Name = C:\Users\sofiya chavarekar\OneDrive\Assignment- Module 1\PROJECT(AI-based drug target identification for SDH-related rare disorders)\Data\Ligands\PDB\Ligand_0016.pdb
REMARK  0 active torsions:
REMARK  status: ('A' for Active; 'I' for Inactive)
REMARK                            x       y       z     vdW  Elec       q    Type
REMARK                         _______ _______ _______ _____ _____    ______ ____
ROOT
ATOM      1  C   UNL     1     -17.969   3.048  28.380  0.00  0.00    +0.000 A 
ATOM      2  C   UNL     1     -17.045   2.091  28.787  0.00  0.00    +0.000 A 
ATOM      3  C   UNL     1     -15.691   2.260  28.492  0.00  0.00    +0.000 A 
ATOM      4  C   UNL     1     -15.244   3.390  27.789  0.00  0.00    +0.000 A 
ATOM      5  C   UNL     1     -13.884   3.576  27.486  0.00  0.00    +0.000 A 
ATOM      6  C   UNL     1     -13.438   4.708  26.784  0.00  0.00    +0.000 A 
ATOM      7  C   UNL     1     -12.080   4.894  26.478  0.00  0.00    +0.000 A 
ATOM      8  C   UNL     1     -11.653   6.023  25.779  0.00  0.00    +0.000 A 
ATOM      9  C   UNL     1     -12.577   6.984  25.379  0.00  0.00    +0.000 A 
ATOM     10  C   UNL     1     -13.930   6.814  25.676  0.00  0.00    +0.000 A 
ATOM     11  C   UNL     1     -14.376   5.682  26.377  0.00  0.00    +0.000 A 
ATOM     12  C   UNL     1     -15.735   5.496  26.680  0.00  0.00    +0.000 A 
ATOM     13  C   UNL     1     -16.181   4.362  27.379  0.00  0.00    +0.000 A 
ATOM     14  C   UNL     1     -17.541   4.176  27.679  0.00  0.00    +0.000 A 
ENDROOT
TORSDOF 0
ENDMDL
MODEL 7
REMARK VINA RESULT:    -5.010      2.179      5.772
REMARK INTER + INTRA:          -5.010
REMARK INTER:                  -5.010
REMARK INTRA:                   0.000
REMARK UNBOUND:                 0.000
REMARK  Name = C:\Users\sofiya chavarekar\OneDrive\Assignment- Module 1\PROJECT(AI-based drug target identification for SDH-related rare disorders)\Data\Ligands\PDB\Ligand_0016.pdb
REMARK  0 active torsions:
REMARK  status: ('A' for Active; 'I' for Inactive)
REMARK                            x       y       z     vdW  Elec       q    Type
REMARK                         _______ _______ _______ _____ _____    ______ ____
ROOT
ATOM      1  C   UNL     1     -13.922   5.287  26.272  0.00  0.00    +0.000 A 
ATOM      2  C   UNL     1     -13.066   6.133  25.574  0.00  0.00    +0.000 A 
ATOM      3  C   UNL     1     -13.304   7.509  25.559  0.00  0.00    +0.000 A 
ATOM      4  C   UNL     1     -14.400   8.056  26.246  0.00  0.00    +0.000 A 
ATOM      5  C   UNL     1     -14.653   9.438  26.243  0.00  0.00    +0.000 A 
ATOM      6  C   UNL     1     -15.749   9.984  26.931  0.00  0.00    +0.000 A 
ATOM      7  C   UNL     1     -16.004  11.365  26.927  0.00  0.00    +0.000 A 
ATOM      8  C   UNL     1     -17.098  11.892  27.614  0.00  0.00    +0.000 A 
ATOM      9  C   UNL     1     -17.949  11.046  28.319  0.00  0.00    +0.000 A 
ATOM     10  C   UNL     1     -17.709   9.672  28.333  0.00  0.00    +0.000 A 
ATOM     11  C   UNL     1     -16.613   9.125  27.644  0.00  0.00    +0.000 A 
ATOM     12  C   UNL     1     -16.361   7.744  27.648  0.00  0.00    +0.000 A 
ATOM     13  C   UNL     1     -15.267   7.198  26.956  0.00  0.00    +0.000 A 
ATOM     14  C   UNL     1     -15.017   5.816  26.958  0.00  0.00    +0.000 A 
ENDROOT
TORSDOF 0
ENDMDL
MODEL 8
REMARK VINA RESULT:    -4.843      9.565     10.344
REMARK INTER + INTRA:          -4.843
REMARK INTER:                  -4.843
REMARK INTRA:                   0.000
REMARK UNBOUND:                 0.000
REMARK  Name = C:\Users\sofiya chavarekar\OneDrive\Assignment- Module 1\PROJECT(AI-based drug target identification for SDH-related rare disorders)\Data\Ligands\PDB\Ligand_0016.pdb
REMARK  0 active torsions:
REMARK  status: ('A' for Active; 'I' for Inactive)
REMARK                            x       y       z     vdW  Elec       q    Type
REMARK                         _______ _______ _______ _____ _____    ______ ____
ROOT
ATOM      1  C   UNL     1     -21.290  -1.804  19.444  0.00  0.00    +0.000 A 
ATOM      2  C   UNL     1     -20.655  -3.006  19.743  0.00  0.00    +0.000 A 
ATOM      3  C   UNL     1     -19.753  -3.072  20.806  0.00  0.00    +0.000 A 
ATOM      4  C   UNL     1     -19.478  -1.937  21.587  0.00  0.00    +0.000 A 
ATOM      5  C   UNL     1     -18.575  -1.988  22.661  0.00  0.00    +0.000 A 
ATOM      6  C   UNL     1     -18.301  -0.853  23.443  0.00  0.00    +0.000 A 
ATOM      7  C   UNL     1     -17.397  -0.901  24.516  0.00  0.00    +0.000 A 
ATOM      8  C   UNL     1     -17.135   0.236  25.281  0.00  0.00    +0.000 A 
ATOM      9  C   UNL     1     -17.776   1.436  24.987  0.00  0.00    +0.000 A 
ATOM     10  C   UNL     1     -18.678   1.499  23.924  0.00  0.00    +0.000 A 
ATOM     11  C   UNL     1     -18.951   0.364  23.142  0.00  0.00    +0.000 A 
ATOM     12  C   UNL     1     -19.854   0.415  22.068  0.00  0.00    +0.000 A 
ATOM     13  C   UNL     1     -20.125  -0.720  21.285  0.00  0.00    +0.000 A 
ATOM     14  C   UNL     1     -21.026  -0.668  20.209  0.00  0.00    +0.000 A 
ENDROOT
TORSDOF 0
ENDMDL
MODEL 9
REMARK VINA RESULT:    -4.838      9.568     10.664
REMARK INTER + INTRA:          -4.838
REMARK INTER:                  -4.838
REMARK INTRA:                   0.000
REMARK UNBOUND:                 0.000
REMARK  Name = C:\Users\sofiya chavarekar\OneDrive\Assignment- Module 1\PROJECT(AI-based drug target identification for SDH-related rare disorders)\Data\Ligands\PDB\Ligand_0016.pdb
REMARK  0 active torsions:
REMARK  status: ('A' for Active; 'I' for Inactive)
REMARK                            x       y       z     vdW  Elec       q    Type
REMARK                         _______ _______ _______ _____ _____    ______ ____
ROOT
ATOM      1  C   UNL     1     -17.165   0.224  25.300  0.00  0.00    +0.000 A 
ATOM      2  C   UNL     1     -17.777   1.433  24.985  0.00  0.00    +0.000 A 
ATOM      3  C   UNL     1     -18.664   1.506  23.910  0.00  0.00    +0.000 A 
ATOM      4  C   UNL     1     -18.954   0.368  23.139  0.00  0.00    +0.000 A 
ATOM      5  C   UNL     1     -19.846   0.424  22.055  0.00  0.00    +0.000 A 
ATOM      6  C   UNL     1     -20.136  -0.714  21.284  0.00  0.00    +0.000 A 
ATOM      7  C   UNL     1     -21.025  -0.660  20.200  0.00  0.00    +0.000 A 
ATOM      8  C   UNL     1     -21.302  -1.799  19.444  0.00  0.00    +0.000 A 
ATOM      9  C   UNL     1     -20.696  -3.010  19.765  0.00  0.00    +0.000 A 
ATOM     10  C   UNL     1     -19.810  -3.081  20.840  0.00  0.00    +0.000 A 
ATOM     11  C   UNL     1     -19.519  -1.942  21.610  0.00  0.00    +0.000 A 
ATOM     12  C   UNL     1     -18.628  -1.999  22.693  0.00  0.00    +0.000 A 
ATOM     13  C   UNL     1     -18.335  -0.858  23.461  0.00  0.00    +0.000 A 
ATOM     14  C   UNL     1     -17.441  -0.915  24.542  0.00  0.00    +0.000 A 
ENDROOT
TORSDOF 0
ENDMDL
