MODEL 1
REMARK VINA RESULT:    -3.933      0.000      0.000
REMARK INTER + INTRA:          -4.986
REMARK INTER:                  -4.737
REMARK INTRA:                  -0.249
REMARK UNBOUND:                -0.249
REMARK  Name = C:\Users\sofiya chavarekar\OneDrive\Assignment- Module 1\PROJECT(AI-based drug target identification for SDH-related rare disorders)\Data\Ligands\PDB\Ligand_0063.pdb
REMARK  7 active torsions:
REMARK  status: ('A' for Active; 'I' for Inactive)
REMARK    1  A    between atoms: C_1  and  C_2
REMARK    2  A    between atoms: C_2  and  C_3
REMARK    3  A    between atoms: C_2  and  C_4
REMARK    4  A    between atoms: C_4  and  C_5
REMARK    5  A    between atoms: C_5  and  C_6
REMARK    6  A    between atoms: C_5  and  C_7
REMARK    7  A    between atoms: C_7  and  O_8
REMARK                            x       y       z     vdW  Elec       q    Type
REMARK                         _______ _______ _______ _____ _____    ______ ____
ROOT
ATOM      1  C   UNL     1     -12.670   6.326  26.867  0.00  0.00    +0.000 C 
ATOM      2  C   UNL     1     -11.608   5.568  26.064  0.00  0.00    +0.000 C 
ENDROOT
BRANCH   1   3
ATOM      3  C   UNL     1     -13.684   5.373  27.535  0.00  0.00    +0.000 C 
BRANCH   3   5
ATOM      4  C   UNL     1     -13.763   2.841  27.855  0.00  0.00    +0.000 C 
ATOM      5  C   UNL     1     -13.865   3.997  26.860  0.00  0.00    +0.000 C 
ATOM      6  C   UNL     1     -15.219   3.942  26.145  0.00  0.00    +0.000 C 
ENDBRANCH   3   5
ENDBRANCH   1   3
BRANCH   1   7
ATOM      7  C   UNL     1     -13.417   7.323  25.965  0.00  0.00    +0.000 C 
BRANCH   7   8
ATOM      8  O   UNL     1     -13.486   6.853  24.625  0.00  0.00    +0.000 OA
ATOM      9  H   UNL     1     -14.133   7.404  24.153  0.00  0.00    +0.000 HD
ENDBRANCH   7   8
ENDBRANCH   1   7
TORSDOF 4
ENDMDL
MODEL 2
REMARK VINA RESULT:    -3.720      2.337      3.620
REMARK INTER + INTRA:          -4.730
REMARK INTER:                  -4.590
REMARK INTRA:                  -0.140
REMARK UNBOUND:                -0.249
REMARK  Name = C:\Users\sofiya chavarekar\OneDrive\Assignment- Module 1\PROJECT(AI-based drug target identification for SDH-related rare disorders)\Data\Ligands\PDB\Ligand_0063.pdb
REMARK  7 active torsions:
REMARK  status: ('A' for Active; 'I' for Inactive)
REMARK    1  A    between atoms: C_1  and  C_2
REMARK    2  A    between atoms: C_2  and  C_3
REMARK    3  A    between atoms: C_2  and  C_4
REMARK    4  A    between atoms: C_4  and  C_5
REMARK    5  A    between atoms: C_5  and  C_6
REMARK    6  A    between atoms: C_5  and  C_7
REMARK    7  A    between atoms: C_7  and  O_8
REMARK                            x       y       z     vdW  Elec       q    Type
REMARK                         _______ _______ _______ _____ _____    ______ ____
ROOT
ATOM      1  C   UNL     1     -10.757   5.479  25.111  0.00  0.00    +0.000 C 
ATOM      2  C   UNL     1     -10.297   6.516  24.081  0.00  0.00    +0.000 C 
ENDROOT
BRANCH   1   3
ATOM      3  C   UNL     1     -11.202   6.133  26.436  0.00  0.00    +0.000 C 
BRANCH   3   5
ATOM      4  C   UNL     1     -13.522   6.928  25.724  0.00  0.00    +0.000 C 
ATOM      5  C   UNL     1     -12.717   6.103  26.729  0.00  0.00    +0.000 C 
ATOM      6  C   UNL     1     -13.220   4.656  26.726  0.00  0.00    +0.000 C 
ENDBRANCH   3   5
ENDBRANCH   1   3
BRANCH   1   7
ATOM      7  C   UNL     1      -9.636   4.464  25.389  0.00  0.00    +0.000 C 
BRANCH   7   8
ATOM      8  O   UNL     1      -9.003   4.052  24.186  0.00  0.00    +0.000 OA
ATOM      9  H   UNL     1      -8.050   3.976  24.365  0.00  0.00    +0.000 HD
ENDBRANCH   7   8
ENDBRANCH   1   7
TORSDOF 4
ENDMDL
MODEL 3
REMARK VINA RESULT:    -3.492      1.651      3.692
REMARK INTER + INTRA:          -4.456
REMARK INTER:                  -4.352
REMARK INTRA:                  -0.104
REMARK UNBOUND:                -0.249
REMARK  Name = C:\Users\sofiya chavarekar\OneDrive\Assignment- Module 1\PROJECT(AI-based drug target identification for SDH-related rare disorders)\Data\Ligands\PDB\Ligand_0063.pdb
REMARK  7 active torsions:
REMARK  status: ('A' for Active; 'I' for Inactive)
REMARK    1  A    between atoms: C_1  and  C_2
REMARK    2  A    between atoms: C_2  and  C_3
REMARK    3  A    between atoms: C_2  and  C_4
REMARK    4  A    between atoms: C_4  and  C_5
REMARK    5  A    between atoms: C_5  and  C_6
REMARK    6  A    between atoms: C_5  and  C_7
REMARK    7  A    between atoms: C_7  and  O_8
REMARK                            x       y       z     vdW  Elec       q    Type
REMARK                         _______ _______ _______ _____ _____    ______ ____
ROOT
ATOM      1  C   UNL     1     -14.073   3.958  27.124  0.00  0.00    +0.000 C 
ATOM      2  C   UNL     1     -14.247   3.329  28.510  0.00  0.00    +0.000 C 
ENDROOT
BRANCH   1   3
ATOM      3  C   UNL     1     -13.315   5.302  27.188  0.00  0.00    +0.000 C 
BRANCH   3   5
ATOM      4  C   UNL     1     -13.134   7.122  25.406  0.00  0.00    +0.000 C 
ATOM      5  C   UNL     1     -12.634   5.756  25.879  0.00  0.00    +0.000 C 
ATOM      6  C   UNL     1     -11.115   5.803  26.071  0.00  0.00    +0.000 C 
ENDBRANCH   3   5
ENDBRANCH   1   3
BRANCH   1   7
ATOM      7  C   UNL     1     -15.439   4.169  26.452  0.00  0.00    +0.000 C 
BRANCH   7   8
ATOM      8  O   UNL     1     -15.642   3.241  25.396  0.00  0.00    +0.000 OA
ATOM      9  H   UNL     1     -16.586   3.005  25.388  0.00  0.00    +0.000 HD
ENDBRANCH   7   8
ENDBRANCH   1   7
TORSDOF 4
ENDMDL
MODEL 4
REMARK VINA RESULT:    -3.441      2.253      4.027
REMARK INTER + INTRA:          -4.394
REMARK INTER:                  -4.229
REMARK INTRA:                  -0.166
REMARK UNBOUND:                -0.249
REMARK  Name = C:\Users\sofiya chavarekar\OneDrive\Assignment- Module 1\PROJECT(AI-based drug target identification for SDH-related rare disorders)\Data\Ligands\PDB\Ligand_0063.pdb
REMARK  7 active torsions:
REMARK  status: ('A' for Active; 'I' for Inactive)
REMARK    1  A    between atoms: C_1  and  C_2
REMARK    2  A    between atoms: C_2  and  C_3
REMARK    3  A    between atoms: C_2  and  C_4
REMARK    4  A    between atoms: C_4  and  C_5
REMARK    5  A    between atoms: C_5  and  C_6
REMARK    6  A    between atoms: C_5  and  C_7
REMARK    7  A    between atoms: C_7  and  O_8
REMARK                            x       y       z     vdW  Elec       q    Type
REMARK                         _______ _______ _______ _____ _____    ______ ____
ROOT
ATOM      1  C   UNL     1     -14.473   4.364  27.344  0.00  0.00    +0.000 C 
ATOM      2  C   UNL     1     -15.146   4.084  25.996  0.00  0.00    +0.000 C 
ENDROOT
BRANCH   1   3
ATOM      3  C   UNL     1     -13.468   5.532  27.261  0.00  0.00    +0.000 C 
BRANCH   3   5
ATOM      4  C   UNL     1     -13.036   7.047  25.251  0.00  0.00    +0.000 C 
ATOM      5  C   UNL     1     -12.738   5.701  25.912  0.00  0.00    +0.000 C 
ATOM      6  C   UNL     1     -11.226   5.552  26.115  0.00  0.00    +0.000 C 
ENDBRANCH   3   5
ENDBRANCH   1   3
BRANCH   1   7
ATOM      7  C   UNL     1     -13.758   3.105  27.860  0.00  0.00    +0.000 C 
BRANCH   7   8
ATOM      8  O   UNL     1     -14.053   2.870  29.231  0.00  0.00    +0.000 OA
ATOM      9  H   UNL     1     -13.570   3.532  29.753  0.00  0.00    +0.000 HD
ENDBRANCH   7   8
ENDBRANCH   1   7
TORSDOF 4
ENDMDL
MODEL 5
REMARK VINA RESULT:    -3.392      2.122      3.513
REMARK INTER + INTRA:          -4.335
REMARK INTER:                  -4.242
REMARK INTRA:                  -0.093
REMARK UNBOUND:                -0.249
REMARK  Name = C:\Users\sofiya chavarekar\OneDrive\Assignment- Module 1\PROJECT(AI-based drug target identification for SDH-related rare disorders)\Data\Ligands\PDB\Ligand_0063.pdb
REMARK  7 active torsions:
REMARK  status: ('A' for Active; 'I' for Inactive)
REMARK    1  A    between atoms: C_1  and  C_2
REMARK    2  A    between atoms: C_2  and  C_3
REMARK    3  A    between atoms: C_2  and  C_4
REMARK    4  A    between atoms: C_4  and  C_5
REMARK    5  A    between atoms: C_5  and  C_6
REMARK    6  A    between atoms: C_5  and  C_7
REMARK    7  A    between atoms: C_7  and  O_8
REMARK                            x       y       z     vdW  Elec       q    Type
REMARK                         _______ _______ _______ _____ _____    ______ ____
ROOT
ATOM      1  C   UNL     1     -14.636   8.053  26.522  0.00  0.00    +0.000 C 
ATOM      2  C   UNL     1     -14.609   9.555  26.219  0.00  0.00    +0.000 C 
ENDROOT
BRANCH   1   3
ATOM      3  C   UNL     1     -13.629   7.267  25.656  0.00  0.00    +0.000 C 
BRANCH   3   5
ATOM      4  C   UNL     1     -13.164   4.965  26.659  0.00  0.00    +0.000 C 
ATOM      5  C   UNL     1     -12.627   6.378  26.422  0.00  0.00    +0.000 C 
ATOM      6  C   UNL     1     -11.303   6.303  25.655  0.00  0.00    +0.000 C 
ENDBRANCH   3   5
ENDBRANCH   1   3
BRANCH   1   7
ATOM      7  C   UNL     1     -16.050   7.487  26.311  0.00  0.00    +0.000 C 
BRANCH   7   8
ATOM      8  O   UNL     1     -17.014   8.527  26.218  0.00  0.00    +0.000 OA
ATOM      9  H   UNL     1     -16.772   9.084  25.459  0.00  0.00    +0.000 HD
ENDBRANCH   7   8
ENDBRANCH   1   7
TORSDOF 4
ENDMDL
MODEL 6
REMARK VINA RESULT:    -3.269      1.670      3.508
REMARK INTER + INTRA:          -4.187
REMARK INTER:                  -4.035
REMARK INTRA:                  -0.152
REMARK UNBOUND:                -0.249
REMARK  Name = C:\Users\sofiya chavarekar\OneDrive\Assignment- Module 1\PROJECT(AI-based drug target identification for SDH-related rare disorders)\Data\Ligands\PDB\Ligand_0063.pdb
REMARK  7 active torsions:
REMARK  status: ('A' for Active; 'I' for Inactive)
REMARK    1  A    between atoms: C_1  and  C_2
REMARK    2  A    between atoms: C_2  and  C_3
REMARK    3  A    between atoms: C_2  and  C_4
REMARK    4  A    between atoms: C_4  and  C_5
REMARK    5  A    between atoms: C_5  and  C_6
REMARK    6  A    between atoms: C_5  and  C_7
REMARK    7  A    between atoms: C_7  and  O_8
REMARK                            x       y       z     vdW  Elec       q    Type
REMARK                         _______ _______ _______ _____ _____    ______ ____
ROOT
ATOM      1  C   UNL     1     -14.683   5.347  26.739  0.00  0.00    +0.000 C 
ATOM      2  C   UNL     1     -15.036   3.864  26.898  0.00  0.00    +0.000 C 
ENDROOT
BRANCH   1   3
ATOM      3  C   UNL     1     -13.190   5.622  27.018  0.00  0.00    +0.000 C 
BRANCH   3   5
ATOM      4  C   UNL     1     -12.478   7.093  25.056  0.00  0.00    +0.000 C 
ATOM      5  C   UNL     1     -12.284   5.758  25.776  0.00  0.00    +0.000 C 
ATOM      6  C   UNL     1     -10.815   5.603  26.183  0.00  0.00    +0.000 C 
ENDBRANCH   3   5
ENDBRANCH   1   3
BRANCH   1   7
ATOM      7  C   UNL     1     -15.549   6.210  27.672  0.00  0.00    +0.000 C 
BRANCH   7   8
ATOM      8  O   UNL     1     -15.148   7.573  27.632  0.00  0.00    +0.000 OA
ATOM      9  H   UNL     1     -14.757   7.790  28.495  0.00  0.00    +0.000 HD
ENDBRANCH   7   8
ENDBRANCH   1   7
TORSDOF 4
ENDMDL
MODEL 7
REMARK VINA RESULT:    -3.167      2.320      4.449
REMARK INTER + INTRA:          -4.064
REMARK INTER:                  -3.918
REMARK INTRA:                  -0.146
REMARK UNBOUND:                -0.249
REMARK  Name = C:\Users\sofiya chavarekar\OneDrive\Assignment- Module 1\PROJECT(AI-based drug target identification for SDH-related rare disorders)\Data\Ligands\PDB\Ligand_0063.pdb
REMARK  7 active torsions:
REMARK  status: ('A' for Active; 'I' for Inactive)
REMARK    1  A    between atoms: C_1  and  C_2
REMARK    2  A    between atoms: C_2  and  C_3
REMARK    3  A    between atoms: C_2  and  C_4
REMARK    4  A    between atoms: C_4  and  C_5
REMARK    5  A    between atoms: C_5  and  C_6
REMARK    6  A    between atoms: C_5  and  C_7
REMARK    7  A    between atoms: C_7  and  O_8
REMARK                            x       y       z     vdW  Elec       q    Type
REMARK                         _______ _______ _______ _____ _____    ______ ____
ROOT
ATOM      1  C   UNL     1     -14.191   6.858  26.647  0.00  0.00    +0.000 C 
ATOM      2  C   UNL     1     -14.911   5.727  27.388  0.00  0.00    +0.000 C 
ENDROOT
BRANCH   1   3
ATOM      3  C   UNL     1     -15.163   7.969  26.194  0.00  0.00    +0.000 C 
BRANCH   3   5
ATOM      4  C   UNL     1     -15.012  10.473  25.718  0.00  0.00    +0.000 C 
ATOM      5  C   UNL     1     -14.902   9.374  26.776  0.00  0.00    +0.000 C 
ATOM      6  C   UNL     1     -15.887   9.658  27.916  0.00  0.00    +0.000 C 
ENDBRANCH   3   5
ENDBRANCH   1   3
BRANCH   1   7
ATOM      7  C   UNL     1     -13.435   6.307  25.426  0.00  0.00    +0.000 C 
BRANCH   7   8
ATOM      8  O   UNL     1     -13.190   7.328  24.468  0.00  0.00    +0.000 OA
ATOM      9  H   UNL     1     -13.731   7.133  23.685  0.00  0.00    +0.000 HD
ENDBRANCH   7   8
ENDBRANCH   1   7
TORSDOF 4
ENDMDL
MODEL 8
REMARK VINA RESULT:    -3.014      2.612      3.618
REMARK INTER + INTRA:          -3.880
REMARK INTER:                  -3.786
REMARK INTRA:                  -0.094
REMARK UNBOUND:                -0.249
REMARK  Name = C:\Users\sofiya chavarekar\OneDrive\Assignment- Module 1\PROJECT(AI-based drug target identification for SDH-related rare disorders)\Data\Ligands\PDB\Ligand_0063.pdb
REMARK  7 active torsions:
REMARK  status: ('A' for Active; 'I' for Inactive)
REMARK    1  A    between atoms: C_1  and  C_2
REMARK    2  A    between atoms: C_2  and  C_3
REMARK    3  A    between atoms: C_2  and  C_4
REMARK    4  A    between atoms: C_4  and  C_5
REMARK    5  A    between atoms: C_5  and  C_6
REMARK    6  A    between atoms: C_5  and  C_7
REMARK    7  A    between atoms: C_7  and  O_8
REMARK                            x       y       z     vdW  Elec       q    Type
REMARK                         _______ _______ _______ _____ _____    ______ ____
ROOT
ATOM      1  C   UNL     1     -15.735   7.909  26.262  0.00  0.00    +0.000 C 
ATOM      2  C   UNL     1     -17.087   7.906  26.982  0.00  0.00    +0.000 C 
ENDROOT
BRANCH   1   3
ATOM      3  C   UNL     1     -14.744   6.899  26.880  0.00  0.00    +0.000 C 
BRANCH   3   5
ATOM      4  C   UNL     1     -12.622   6.370  25.563  0.00  0.00    +0.000 C 
ATOM      5  C   UNL     1     -14.052   5.939  25.891  0.00  0.00    +0.000 C 
ATOM      6  C   UNL     1     -14.041   4.518  26.464  0.00  0.00    +0.000 C 
ENDBRANCH   3   5
ENDBRANCH   1   3
BRANCH   1   7
ATOM      7  C   UNL     1     -15.116   9.316  26.283  0.00  0.00    +0.000 C 
BRANCH   7   8
ATOM      8  O   UNL     1     -14.955   9.789  27.613  0.00  0.00    +0.000 OA
ATOM      9  H   UNL     1     -14.107   9.448  27.946  0.00  0.00    +0.000 HD
ENDBRANCH   7   8
ENDBRANCH   1   7
TORSDOF 4
ENDMDL
MODEL 9
REMARK VINA RESULT:    -3.011     10.619     11.832
REMARK INTER + INTRA:          -3.876
REMARK INTER:                  -3.771
REMARK INTRA:                  -0.105
REMARK UNBOUND:                -0.249
REMARK  Name = C:\Users\sofiya chavarekar\OneDrive\Assignment- Module 1\PROJECT(AI-based drug target identification for SDH-related rare disorders)\Data\Ligands\PDB\Ligand_0063.pdb
REMARK  7 active torsions:
REMARK  status: ('A' for Active; 'I' for Inactive)
REMARK    1  A    between atoms: C_1  and  C_2
REMARK    2  A    between atoms: C_2  and  C_3
REMARK    3  A    between atoms: C_2  and  C_4
REMARK    4  A    between atoms: C_4  and  C_5
REMARK    5  A    between atoms: C_5  and  C_6
REMARK    6  A    between atoms: C_5  and  C_7
REMARK    7  A    between atoms: C_7  and  O_8
REMARK                            x       y       z     vdW  Elec       q    Type
REMARK                         _______ _______ _______ _____ _____    ______ ____
ROOT
ATOM      1  C   UNL     1     -20.803  -1.451  21.053  0.00  0.00    +0.000 C 
ATOM      2  C   UNL     1     -20.233  -0.039  21.222  0.00  0.00    +0.000 C 
ENDROOT
BRANCH   1   3
ATOM      3  C   UNL     1     -19.694  -2.526  21.026  0.00  0.00    +0.000 C 
BRANCH   3   5
ATOM      4  C   UNL     1     -20.038  -5.030  21.386  0.00  0.00    +0.000 C 
ATOM      5  C   UNL     1     -19.835  -3.669  22.053  0.00  0.00    +0.000 C 
ATOM      6  C   UNL     1     -18.597  -3.717  22.953  0.00  0.00    +0.000 C 
ENDBRANCH   3   5
ENDBRANCH   1   3
BRANCH   1   7
ATOM      7  C   UNL     1     -21.641  -1.544  19.768  0.00  0.00    +0.000 C 
BRANCH   7   8
ATOM      8  O   UNL     1     -20.817  -1.751  18.629  0.00  0.00    +0.000 OA
ATOM      9  H   UNL     1     -19.899  -1.821  18.939  0.00  0.00    +0.000 HD
ENDBRANCH   7   8
ENDBRANCH   1   7
TORSDOF 4
ENDMDL
