MODEL 1
REMARK VINA RESULT:    -3.737      0.000      0.000
REMARK INTER + INTRA:          -4.339
REMARK INTER:                  -4.284
REMARK INTRA:                  -0.055
REMARK UNBOUND:                -0.055
REMARK  Name = C:\Users\sofiya chavarekar\OneDrive\Assignment- Module 1\PROJECT(AI-based drug target identification for SDH-related rare disorders)\Data\Ligands\PDB\Ligand_0057.pdb
REMARK  5 active torsions:
REMARK  status: ('A' for Active; 'I' for Inactive)
REMARK    1  A    between atoms: C_1  and  C_2
REMARK    2  A    between atoms: C_2  and  C_3
REMARK    3  A    between atoms: C_3  and  C_4
REMARK    4  A    between atoms: C_4  and  C_5
REMARK    5  A    between atoms: C_4  and  O_6
REMARK                            x       y       z     vdW  Elec       q    Type
REMARK                         _______ _______ _______ _____ _____    ______ ____
ROOT
ATOM      1  C   UNL     1     -12.649   7.001  25.468  0.00  0.00    +0.000 C 
ATOM      2  C   UNL     1     -13.713   5.963  25.801  0.00  0.00    +0.000 C 
ENDROOT
BRANCH   1   3
ATOM      3  O   UNL     1     -12.959   7.574  24.196  0.00  0.00    +0.000 OA
ATOM      4  H   UNL     1     -12.388   8.353  24.073  0.00  0.00    +0.000 HD
ENDBRANCH   1   3
BRANCH   1   5
ATOM      5  C   UNL     1     -11.226   6.434  25.406  0.00  0.00    +0.000 C 
BRANCH   5   7
ATOM      6  C   UNL     1      -9.770   4.411  25.747  0.00  0.00    +0.000 C 
ATOM      7  C   UNL     1     -11.048   5.121  26.166  0.00  0.00    +0.000 C 
ENDBRANCH   5   7
ENDBRANCH   1   5
TORSDOF 3
ENDMDL
MODEL 2
REMARK VINA RESULT:    -3.443      2.498      3.905
REMARK INTER + INTRA:          -4.001
REMARK INTER:                  -3.953
REMARK INTRA:                  -0.048
REMARK UNBOUND:                -0.055
REMARK  Name = C:\Users\sofiya chavarekar\OneDrive\Assignment- Module 1\PROJECT(AI-based drug target identification for SDH-related rare disorders)\Data\Ligands\PDB\Ligand_0057.pdb
REMARK  5 active torsions:
REMARK  status: ('A' for Active; 'I' for Inactive)
REMARK    1  A    between atoms: C_1  and  C_2
REMARK    2  A    between atoms: C_2  and  C_3
REMARK    3  A    between atoms: C_3  and  C_4
REMARK    4  A    between atoms: C_4  and  C_5
REMARK    5  A    between atoms: C_4  and  O_6
REMARK                            x       y       z     vdW  Elec       q    Type
REMARK                         _______ _______ _______ _____ _____    ______ ____
ROOT
ATOM      1  C   UNL     1      -9.856   3.830  25.475  0.00  0.00    +0.000 C 
ATOM      2  C   UNL     1      -9.332   2.851  26.519  0.00  0.00    +0.000 C 
ENDROOT
BRANCH   1   3
ATOM      3  O   UNL     1      -8.933   3.866  24.385  0.00  0.00    +0.000 OA
ATOM      4  H   UNL     1      -8.951   2.995  23.950  0.00  0.00    +0.000 HD
ENDBRANCH   1   3
BRANCH   1   5
ATOM      5  C   UNL     1     -10.037   5.259  25.999  0.00  0.00    +0.000 C 
BRANCH   5   7
ATOM      6  C   UNL     1     -12.346   5.977  26.690  0.00  0.00    +0.000 C 
ATOM      7  C   UNL     1     -11.338   5.923  25.553  0.00  0.00    +0.000 C 
ENDBRANCH   5   7
ENDBRANCH   1   5
TORSDOF 3
ENDMDL
MODEL 3
REMARK VINA RESULT:    -3.220      1.888      3.956
REMARK INTER + INTRA:          -3.746
REMARK INTER:                  -3.694
REMARK INTRA:                  -0.051
REMARK UNBOUND:                -0.055
REMARK  Name = C:\Users\sofiya chavarekar\OneDrive\Assignment- Module 1\PROJECT(AI-based drug target identification for SDH-related rare disorders)\Data\Ligands\PDB\Ligand_0057.pdb
REMARK  5 active torsions:
REMARK  status: ('A' for Active; 'I' for Inactive)
REMARK    1  A    between atoms: C_1  and  C_2
REMARK    2  A    between atoms: C_2  and  C_3
REMARK    3  A    between atoms: C_3  and  C_4
REMARK    4  A    between atoms: C_4  and  C_5
REMARK    5  A    between atoms: C_4  and  O_6
REMARK                            x       y       z     vdW  Elec       q    Type
REMARK                         _______ _______ _______ _____ _____    ______ ____
ROOT
ATOM      1  C   UNL     1     -13.062   6.608  25.325  0.00  0.00    +0.000 C 
ATOM      2  C   UNL     1     -11.644   6.305  25.793  0.00  0.00    +0.000 C 
ENDROOT
BRANCH   1   3
ATOM      3  O   UNL     1     -12.995   7.572  24.272  0.00  0.00    +0.000 OA
ATOM      4  H   UNL     1     -13.801   7.483  23.735  0.00  0.00    +0.000 HD
ENDBRANCH   1   3
BRANCH   1   5
ATOM      5  C   UNL     1     -13.974   7.161  26.426  0.00  0.00    +0.000 C 
BRANCH   5   7
ATOM      6  C   UNL     1     -15.928   8.713  26.110  0.00  0.00    +0.000 C 
ATOM      7  C   UNL     1     -14.414   8.606  26.200  0.00  0.00    +0.000 C 
ENDBRANCH   5   7
ENDBRANCH   1   5
TORSDOF 3
ENDMDL
MODEL 4
REMARK VINA RESULT:    -3.175      1.336      3.046
REMARK INTER + INTRA:          -3.694
REMARK INTER:                  -3.607
REMARK INTRA:                  -0.087
REMARK UNBOUND:                -0.055
REMARK  Name = C:\Users\sofiya chavarekar\OneDrive\Assignment- Module 1\PROJECT(AI-based drug target identification for SDH-related rare disorders)\Data\Ligands\PDB\Ligand_0057.pdb
REMARK  5 active torsions:
REMARK  status: ('A' for Active; 'I' for Inactive)
REMARK    1  A    between atoms: C_1  and  C_2
REMARK    2  A    between atoms: C_2  and  C_3
REMARK    3  A    between atoms: C_3  and  C_4
REMARK    4  A    between atoms: C_4  and  C_5
REMARK    5  A    between atoms: C_4  and  O_6
REMARK                            x       y       z     vdW  Elec       q    Type
REMARK                         _______ _______ _______ _____ _____    ______ ____
ROOT
ATOM      1  C   UNL     1     -12.905   6.621  25.257  0.00  0.00    +0.000 C 
ATOM      2  C   UNL     1     -11.453   6.417  25.671  0.00  0.00    +0.000 C 
ENDROOT
BRANCH   1   3
ATOM      3  O   UNL     1     -12.946   7.595  24.213  0.00  0.00    +0.000 OA
ATOM      4  H   UNL     1     -12.055   7.653  23.824  0.00  0.00    +0.000 HD
ENDBRANCH   1   3
BRANCH   1   5
ATOM      5  C   UNL     1     -13.814   7.098  26.396  0.00  0.00    +0.000 C 
BRANCH   5   7
ATOM      6  C   UNL     1     -14.712   4.752  26.269  0.00  0.00    +0.000 C 
ATOM      7  C   UNL     1     -15.018   6.192  26.649  0.00  0.00    +0.000 C 
ENDBRANCH   5   7
ENDBRANCH   1   5
TORSDOF 3
ENDMDL
MODEL 5
REMARK VINA RESULT:    -3.135      1.983      2.512
REMARK INTER + INTRA:          -3.648
REMARK INTER:                  -3.575
REMARK INTRA:                  -0.073
REMARK UNBOUND:                -0.055
REMARK  Name = C:\Users\sofiya chavarekar\OneDrive\Assignment- Module 1\PROJECT(AI-based drug target identification for SDH-related rare disorders)\Data\Ligands\PDB\Ligand_0057.pdb
REMARK  5 active torsions:
REMARK  status: ('A' for Active; 'I' for Inactive)
REMARK    1  A    between atoms: C_1  and  C_2
REMARK    2  A    between atoms: C_2  and  C_3
REMARK    3  A    between atoms: C_3  and  C_4
REMARK    4  A    between atoms: C_4  and  C_5
REMARK    5  A    between atoms: C_4  and  O_6
REMARK                            x       y       z     vdW  Elec       q    Type
REMARK                         _______ _______ _______ _____ _____    ______ ____
ROOT
ATOM      1  C   UNL     1     -14.452   7.133  26.270  0.00  0.00    +0.000 C 
ATOM      2  C   UNL     1     -14.309   8.650  26.320  0.00  0.00    +0.000 C 
ENDROOT
BRANCH   1   3
ATOM      3  O   UNL     1     -14.235   6.615  27.584  0.00  0.00    +0.000 OA
ATOM      4  H   UNL     1     -13.295   6.737  27.802  0.00  0.00    +0.000 HD
ENDBRANCH   1   3
BRANCH   1   5
ATOM      5  C   UNL     1     -13.468   6.448  25.314  0.00  0.00    +0.000 C 
BRANCH   5   7
ATOM      6  C   UNL     1     -11.272   5.420  25.983  0.00  0.00    +0.000 C 
ATOM      7  C   UNL     1     -12.000   6.711  25.642  0.00  0.00    +0.000 C 
ENDBRANCH   5   7
ENDBRANCH   1   5
TORSDOF 3
ENDMDL
MODEL 6
REMARK VINA RESULT:    -3.132      2.151      2.532
REMARK INTER + INTRA:          -3.645
REMARK INTER:                  -3.544
REMARK INTRA:                  -0.101
REMARK UNBOUND:                -0.055
REMARK  Name = C:\Users\sofiya chavarekar\OneDrive\Assignment- Module 1\PROJECT(AI-based drug target identification for SDH-related rare disorders)\Data\Ligands\PDB\Ligand_0057.pdb
REMARK  5 active torsions:
REMARK  status: ('A' for Active; 'I' for Inactive)
REMARK    1  A    between atoms: C_1  and  C_2
REMARK    2  A    between atoms: C_2  and  C_3
REMARK    3  A    between atoms: C_3  and  C_4
REMARK    4  A    between atoms: C_4  and  C_5
REMARK    5  A    between atoms: C_4  and  O_6
REMARK                            x       y       z     vdW  Elec       q    Type
REMARK                         _______ _______ _______ _____ _____    ______ ____
ROOT
ATOM      1  C   UNL     1     -13.396   5.323  26.986  0.00  0.00    +0.000 C 
ATOM      2  C   UNL     1     -14.573   4.750  26.207  0.00  0.00    +0.000 C 
ENDROOT
BRANCH   1   3
ATOM      3  O   UNL     1     -13.806   5.532  28.339  0.00  0.00    +0.000 OA
ATOM      4  H   UNL     1     -13.745   6.485  28.525  0.00  0.00    +0.000 HD
ENDBRANCH   1   3
BRANCH   1   5
ATOM      5  C   UNL     1     -12.873   6.654  26.431  0.00  0.00    +0.000 C 
BRANCH   5   7
ATOM      6  C   UNL     1     -10.801   5.303  25.976  0.00  0.00    +0.000 C 
ATOM      7  C   UNL     1     -11.621   6.516  25.567  0.00  0.00    +0.000 C 
ENDBRANCH   5   7
ENDBRANCH   1   5
TORSDOF 3
ENDMDL
MODEL 7
REMARK VINA RESULT:    -2.881      7.590      8.229
REMARK INTER + INTRA:          -3.357
REMARK INTER:                  -3.284
REMARK INTRA:                  -0.073
REMARK UNBOUND:                -0.055
REMARK  Name = C:\Users\sofiya chavarekar\OneDrive\Assignment- Module 1\PROJECT(AI-based drug target identification for SDH-related rare disorders)\Data\Ligands\PDB\Ligand_0057.pdb
REMARK  5 active torsions:
REMARK  status: ('A' for Active; 'I' for Inactive)
REMARK    1  A    between atoms: C_1  and  C_2
REMARK    2  A    between atoms: C_2  and  C_3
REMARK    3  A    between atoms: C_3  and  C_4
REMARK    4  A    between atoms: C_4  and  C_5
REMARK    5  A    between atoms: C_4  and  O_6
REMARK                            x       y       z     vdW  Elec       q    Type
REMARK                         _______ _______ _______ _____ _____    ______ ____
ROOT
ATOM      1  C   UNL     1     -12.793  -0.161  29.328  0.00  0.00    +0.000 C 
ATOM      2  C   UNL     1     -11.865  -0.957  28.418  0.00  0.00    +0.000 C 
ENDROOT
BRANCH   1   3
ATOM      3  O   UNL     1     -12.438  -0.432  30.686  0.00  0.00    +0.000 OA
ATOM      4  H   UNL     1     -11.865   0.292  30.994  0.00  0.00    +0.000 HD
ENDBRANCH   1   3
BRANCH   1   5
ATOM      5  C   UNL     1     -14.278  -0.494  29.144  0.00  0.00    +0.000 C 
BRANCH   5   7
ATOM      6  C   UNL     1     -15.338  -0.966  26.912  0.00  0.00    +0.000 C 
ATOM      7  C   UNL     1     -14.898   0.115  27.888  0.00  0.00    +0.000 C 
ENDBRANCH   5   7
ENDBRANCH   1   5
TORSDOF 3
ENDMDL
MODEL 8
REMARK VINA RESULT:    -2.793      4.256      5.583
REMARK INTER + INTRA:          -3.256
REMARK INTER:                  -3.239
REMARK INTRA:                  -0.017
REMARK UNBOUND:                -0.055
REMARK  Name = C:\Users\sofiya chavarekar\OneDrive\Assignment- Module 1\PROJECT(AI-based drug target identification for SDH-related rare disorders)\Data\Ligands\PDB\Ligand_0057.pdb
REMARK  5 active torsions:
REMARK  status: ('A' for Active; 'I' for Inactive)
REMARK    1  A    between atoms: C_1  and  C_2
REMARK    2  A    between atoms: C_2  and  C_3
REMARK    3  A    between atoms: C_3  and  C_4
REMARK    4  A    between atoms: C_4  and  C_5
REMARK    5  A    between atoms: C_4  and  O_6
REMARK                            x       y       z     vdW  Elec       q    Type
REMARK                         _______ _______ _______ _____ _____    ______ ____
ROOT
ATOM      1  C   UNL     1      -9.255   2.534  26.583  0.00  0.00    +0.000 C 
ATOM      2  C   UNL     1      -9.662   3.854  25.939  0.00  0.00    +0.000 C 
ENDROOT
BRANCH   1   3
ATOM      3  O   UNL     1     -10.440   1.828  26.957  0.00  0.00    +0.000 OA
ATOM      4  H   UNL     1     -10.273   1.402  27.815  0.00  0.00    +0.000 HD
ENDBRANCH   1   3
BRANCH   1   5
ATOM      5  C   UNL     1      -8.377   2.696  27.830  0.00  0.00    +0.000 C 
BRANCH   5   7
ATOM      6  C   UNL     1      -6.336   1.974  29.110  0.00  0.00    +0.000 C 
ATOM      7  C   UNL     1      -7.240   1.680  27.923  0.00  0.00    +0.000 C 
ENDBRANCH   5   7
ENDBRANCH   1   5
TORSDOF 3
ENDMDL
MODEL 9
REMARK VINA RESULT:    -2.729      1.951      2.988
REMARK INTER + INTRA:          -3.183
REMARK INTER:                  -3.114
REMARK INTRA:                  -0.069
REMARK UNBOUND:                -0.055
REMARK  Name = C:\Users\sofiya chavarekar\OneDrive\Assignment- Module 1\PROJECT(AI-based drug target identification for SDH-related rare disorders)\Data\Ligands\PDB\Ligand_0057.pdb
REMARK  5 active torsions:
REMARK  status: ('A' for Active; 'I' for Inactive)
REMARK    1  A    between atoms: C_1  and  C_2
REMARK    2  A    between atoms: C_2  and  C_3
REMARK    3  A    between atoms: C_3  and  C_4
REMARK    4  A    between atoms: C_4  and  C_5
REMARK    5  A    between atoms: C_4  and  O_6
REMARK                            x       y       z     vdW  Elec       q    Type
REMARK                         _______ _______ _______ _____ _____    ______ ____
ROOT
ATOM      1  C   UNL     1     -13.490   6.733  25.770  0.00  0.00    +0.000 C 
ATOM      2  C   UNL     1     -11.976   6.597  25.666  0.00  0.00    +0.000 C 
ENDROOT
BRANCH   1   3
ATOM      3  O   UNL     1     -13.791   7.647  26.826  0.00  0.00    +0.000 OA
ATOM      4  H   UNL     1     -14.623   7.359  27.241  0.00  0.00    +0.000 HD
ENDBRANCH   1   3
BRANCH   1   5
ATOM      5  C   UNL     1     -14.214   5.412  26.055  0.00  0.00    +0.000 C 
BRANCH   5   7
ATOM      6  C   UNL     1     -14.187   3.782  27.970  0.00  0.00    +0.000 C 
ATOM      7  C   UNL     1     -13.379   4.405  26.842  0.00  0.00    +0.000 C 
ENDBRANCH   5   7
ENDBRANCH   1   5
TORSDOF 3
ENDMDL
