MODEL 1
REMARK VINA RESULT:    -3.122      0.000      0.000
REMARK INTER + INTRA:          -3.514
REMARK INTER:                  -3.487
REMARK INTRA:                  -0.027
REMARK UNBOUND:                -0.027
REMARK  Name = C:\Users\sofiya chavarekar\OneDrive\Assignment- Module 1\PROJECT(AI-based drug target identification for SDH-related rare disorders)\Data\Ligands\PDB\Ligand_0087.pdb
REMARK  3 active torsions:
REMARK  status: ('A' for Active; 'I' for Inactive)
REMARK    1  A    between atoms: C_1  and  C_2
REMARK    2  A    between atoms: C_2  and  O_3
REMARK    3  A    between atoms: O_3  and  C_4
REMARK                            x       y       z     vdW  Elec       q    Type
REMARK                         _______ _______ _______ _____ _____    ______ ____
ROOT
ATOM      1  O   UNL     1     -11.328  -2.048  30.288  0.00  0.00    +0.000 OA
ENDROOT
BRANCH   1   3
ATOM      2  C   UNL     1     -11.302  -1.168  28.023  0.00  0.00    +0.000 C 
ATOM      3  C   UNL     1     -10.737  -2.194  28.987  0.00  0.00    +0.000 C 
ENDBRANCH   1   3
BRANCH   1   4
ATOM      4  C   UNL     1     -12.626  -1.656  30.301  0.00  0.00    +0.000 C 
ATOM      5  O   UNL     1     -13.440  -1.848  31.187  0.00  0.00    +0.000 OA
ENDBRANCH   1   4
TORSDOF 2
ENDMDL
MODEL 2
REMARK VINA RESULT:    -2.932      9.656     10.448
REMARK INTER + INTRA:          -3.301
REMARK INTER:                  -3.272
REMARK INTRA:                  -0.030
REMARK UNBOUND:                -0.027
REMARK  Name = C:\Users\sofiya chavarekar\OneDrive\Assignment- Module 1\PROJECT(AI-based drug target identification for SDH-related rare disorders)\Data\Ligands\PDB\Ligand_0087.pdb
REMARK  3 active torsions:
REMARK  status: ('A' for Active; 'I' for Inactive)
REMARK    1  A    between atoms: C_1  and  C_2
REMARK    2  A    between atoms: C_2  and  O_3
REMARK    3  A    between atoms: O_3  and  C_4
REMARK                            x       y       z     vdW  Elec       q    Type
REMARK                         _______ _______ _______ _____ _____    ______ ____
ROOT
ATOM      1  O   UNL     1     -11.757   7.068  24.366  0.00  0.00    +0.000 OA
ENDROOT
BRANCH   1   3
ATOM      2  C   UNL     1     -10.984   5.506  26.059  0.00  0.00    +0.000 C 
ATOM      3  C   UNL     1     -12.000   6.573  25.691  0.00  0.00    +0.000 C 
ENDBRANCH   1   3
BRANCH   1   4
ATOM      4  C   UNL     1     -10.468   7.020  23.948  0.00  0.00    +0.000 C 
ATOM      5  O   UNL     1      -9.930   7.761  23.144  0.00  0.00    +0.000 OA
ENDBRANCH   1   4
TORSDOF 2
ENDMDL
MODEL 3
REMARK VINA RESULT:    -2.720      7.970      8.841
REMARK INTER + INTRA:          -3.065
REMARK INTER:                  -3.054
REMARK INTRA:                  -0.011
REMARK UNBOUND:                -0.027
REMARK  Name = C:\Users\sofiya chavarekar\OneDrive\Assignment- Module 1\PROJECT(AI-based drug target identification for SDH-related rare disorders)\Data\Ligands\PDB\Ligand_0087.pdb
REMARK  3 active torsions:
REMARK  status: ('A' for Active; 'I' for Inactive)
REMARK    1  A    between atoms: C_1  and  C_2
REMARK    2  A    between atoms: C_2  and  O_3
REMARK    3  A    between atoms: O_3  and  C_4
REMARK                            x       y       z     vdW  Elec       q    Type
REMARK                         _______ _______ _______ _____ _____    ______ ____
ROOT
ATOM      1  O   UNL     1     -10.450   5.139  26.129  0.00  0.00    +0.000 OA
ENDROOT
BRANCH   1   3
ATOM      2  C   UNL     1     -12.449   6.518  26.062  0.00  0.00    +0.000 C 
ATOM      3  C   UNL     1     -11.133   6.166  25.393  0.00  0.00    +0.000 C 
ENDBRANCH   1   3
BRANCH   1   4
ATOM      4  C   UNL     1      -9.665   4.314  25.393  0.00  0.00    +0.000 C 
ATOM      5  O   UNL     1      -9.300   4.483  24.242  0.00  0.00    +0.000 OA
ENDBRANCH   1   4
TORSDOF 2
ENDMDL
MODEL 4
REMARK VINA RESULT:    -2.705      9.188      9.648
REMARK INTER + INTRA:          -3.048
REMARK INTER:                  -3.024
REMARK INTRA:                  -0.024
REMARK UNBOUND:                -0.027
REMARK  Name = C:\Users\sofiya chavarekar\OneDrive\Assignment- Module 1\PROJECT(AI-based drug target identification for SDH-related rare disorders)\Data\Ligands\PDB\Ligand_0087.pdb
REMARK  3 active torsions:
REMARK  status: ('A' for Active; 'I' for Inactive)
REMARK    1  A    between atoms: C_1  and  C_2
REMARK    2  A    between atoms: C_2  and  O_3
REMARK    3  A    between atoms: O_3  and  C_4
REMARK                            x       y       z     vdW  Elec       q    Type
REMARK                         _______ _______ _______ _____ _____    ______ ____
ROOT
ATOM      1  O   UNL     1     -12.680   7.005  24.774  0.00  0.00    +0.000 OA
ENDROOT
BRANCH   1   3
ATOM      2  C   UNL     1     -11.171   5.546  25.998  0.00  0.00    +0.000 C 
ATOM      3  C   UNL     1     -11.299   6.687  25.006  0.00  0.00    +0.000 C 
ENDBRANCH   1   3
BRANCH   1   4
ATOM      4  C   UNL     1     -13.495   6.898  25.852  0.00  0.00    +0.000 C 
ATOM      5  O   UNL     1     -13.775   7.776  26.648  0.00  0.00    +0.000 OA
ENDBRANCH   1   4
TORSDOF 2
ENDMDL
MODEL 5
REMARK VINA RESULT:    -2.574      8.052      8.651
REMARK INTER + INTRA:          -2.902
REMARK INTER:                  -2.899
REMARK INTRA:                  -0.003
REMARK UNBOUND:                -0.027
REMARK  Name = C:\Users\sofiya chavarekar\OneDrive\Assignment- Module 1\PROJECT(AI-based drug target identification for SDH-related rare disorders)\Data\Ligands\PDB\Ligand_0087.pdb
REMARK  3 active torsions:
REMARK  status: ('A' for Active; 'I' for Inactive)
REMARK    1  A    between atoms: C_1  and  C_2
REMARK    2  A    between atoms: C_2  and  O_3
REMARK    3  A    between atoms: O_3  and  C_4
REMARK                            x       y       z     vdW  Elec       q    Type
REMARK                         _______ _______ _______ _____ _____    ______ ____
ROOT
ATOM      1  O   UNL     1     -11.226   5.385  25.950  0.00  0.00    +0.000 OA
ENDROOT
BRANCH   1   3
ATOM      2  C   UNL     1      -9.662   3.533  26.115  0.00  0.00    +0.000 C 
ATOM      3  C   UNL     1      -9.994   4.852  25.441  0.00  0.00    +0.000 C 
ENDBRANCH   1   3
BRANCH   1   4
ATOM      4  C   UNL     1     -11.610   6.575  25.428  0.00  0.00    +0.000 C 
ATOM      5  O   UNL     1     -12.623   6.802  24.790  0.00  0.00    +0.000 OA
ENDBRANCH   1   4
TORSDOF 2
ENDMDL
MODEL 6
REMARK VINA RESULT:    -2.408     10.351     10.889
REMARK INTER + INTRA:          -2.717
REMARK INTER:                  -2.684
REMARK INTRA:                  -0.033
REMARK UNBOUND:                -0.027
REMARK  Name = C:\Users\sofiya chavarekar\OneDrive\Assignment- Module 1\PROJECT(AI-based drug target identification for SDH-related rare disorders)\Data\Ligands\PDB\Ligand_0087.pdb
REMARK  3 active torsions:
REMARK  status: ('A' for Active; 'I' for Inactive)
REMARK    1  A    between atoms: C_1  and  C_2
REMARK    2  A    between atoms: C_2  and  O_3
REMARK    3  A    between atoms: O_3  and  C_4
REMARK                            x       y       z     vdW  Elec       q    Type
REMARK                         _______ _______ _______ _____ _____    ______ ____
ROOT
ATOM      1  O   UNL     1     -13.525   7.606  26.647  0.00  0.00    +0.000 OA
ENDROOT
BRANCH   1   3
ATOM      2  C   UNL     1     -14.733   9.696  26.371  0.00  0.00    +0.000 C 
ATOM      3  C   UNL     1     -14.814   8.181  26.381  0.00  0.00    +0.000 C 
ENDBRANCH   1   3
BRANCH   1   4
ATOM      4  C   UNL     1     -13.033   6.796  25.678  0.00  0.00    +0.000 C 
ATOM      5  O   UNL     1     -12.724   7.115  24.543  0.00  0.00    +0.000 OA
ENDBRANCH   1   4
TORSDOF 2
ENDMDL
MODEL 7
REMARK VINA RESULT:    -2.404      2.432      2.971
REMARK INTER + INTRA:          -2.712
REMARK INTER:                  -2.708
REMARK INTRA:                  -0.004
REMARK UNBOUND:                -0.027
REMARK  Name = C:\Users\sofiya chavarekar\OneDrive\Assignment- Module 1\PROJECT(AI-based drug target identification for SDH-related rare disorders)\Data\Ligands\PDB\Ligand_0087.pdb
REMARK  3 active torsions:
REMARK  status: ('A' for Active; 'I' for Inactive)
REMARK    1  A    between atoms: C_1  and  C_2
REMARK    2  A    between atoms: C_2  and  O_3
REMARK    3  A    between atoms: O_3  and  C_4
REMARK                            x       y       z     vdW  Elec       q    Type
REMARK                         _______ _______ _______ _____ _____    ______ ____
ROOT
ATOM      1  O   UNL     1     -14.262  -0.754  29.649  0.00  0.00    +0.000 OA
ENDROOT
BRANCH   1   3
ATOM      2  C   UNL     1     -14.947  -0.866  27.320  0.00  0.00    +0.000 C 
ATOM      3  C   UNL     1     -14.188  -0.087  28.379  0.00  0.00    +0.000 C 
ENDBRANCH   1   3
BRANCH   1   4
ATOM      4  C   UNL     1     -13.108  -1.318  30.083  0.00  0.00    +0.000 C 
ATOM      5  O   UNL     1     -12.294  -0.827  30.845  0.00  0.00    +0.000 OA
ENDBRANCH   1   4
TORSDOF 2
ENDMDL
MODEL 8
REMARK VINA RESULT:    -2.355      1.862      2.453
REMARK INTER + INTRA:          -2.657
REMARK INTER:                  -2.625
REMARK INTRA:                  -0.032
REMARK UNBOUND:                -0.027
REMARK  Name = C:\Users\sofiya chavarekar\OneDrive\Assignment- Module 1\PROJECT(AI-based drug target identification for SDH-related rare disorders)\Data\Ligands\PDB\Ligand_0087.pdb
REMARK  3 active torsions:
REMARK  status: ('A' for Active; 'I' for Inactive)
REMARK    1  A    between atoms: C_1  and  C_2
REMARK    2  A    between atoms: C_2  and  O_3
REMARK    3  A    between atoms: O_3  and  C_4
REMARK                            x       y       z     vdW  Elec       q    Type
REMARK                         _______ _______ _______ _____ _____    ______ ____
ROOT
ATOM      1  O   UNL     1     -13.656  -1.560  31.336  0.00  0.00    +0.000 OA
ENDROOT
BRANCH   1   3
ATOM      2  C   UNL     1     -12.822  -0.427  29.355  0.00  0.00    +0.000 C 
ATOM      3  C   UNL     1     -12.685  -1.623  30.279  0.00  0.00    +0.000 C 
ENDBRANCH   1   3
BRANCH   1   4
ATOM      4  C   UNL     1     -14.780  -0.856  31.058  0.00  0.00    +0.000 C 
ATOM      5  O   UNL     1     -15.665  -0.551  31.838  0.00  0.00    +0.000 OA
ENDBRANCH   1   4
TORSDOF 2
ENDMDL
MODEL 9
REMARK VINA RESULT:    -2.294      8.732      9.271
REMARK INTER + INTRA:          -2.589
REMARK INTER:                  -2.573
REMARK INTRA:                  -0.016
REMARK UNBOUND:                -0.027
REMARK  Name = C:\Users\sofiya chavarekar\OneDrive\Assignment- Module 1\PROJECT(AI-based drug target identification for SDH-related rare disorders)\Data\Ligands\PDB\Ligand_0087.pdb
REMARK  3 active torsions:
REMARK  status: ('A' for Active; 'I' for Inactive)
REMARK    1  A    between atoms: C_1  and  C_2
REMARK    2  A    between atoms: C_2  and  O_3
REMARK    3  A    between atoms: O_3  and  C_4
REMARK                            x       y       z     vdW  Elec       q    Type
REMARK                         _______ _______ _______ _____ _____    ______ ____
ROOT
ATOM      1  O   UNL     1     -13.119   6.812  26.846  0.00  0.00    +0.000 OA
ENDROOT
BRANCH   1   3
ATOM      2  C   UNL     1     -14.546   4.885  26.457  0.00  0.00    +0.000 C 
ATOM      3  C   UNL     1     -13.551   5.554  27.387  0.00  0.00    +0.000 C 
ENDBRANCH   1   3
BRANCH   1   4
ATOM      4  C   UNL     1     -12.372   6.740  25.717  0.00  0.00    +0.000 C 
ATOM      5  O   UNL     1     -12.682   7.134  24.607  0.00  0.00    +0.000 OA
ENDBRANCH   1   4
TORSDOF 2
ENDMDL
