MODEL 1
REMARK VINA RESULT:    -7.052      0.000      0.000
REMARK INTER + INTRA:          -7.258
REMARK INTER:                  -7.258
REMARK INTRA:                   0.000
REMARK UNBOUND:                 0.000
REMARK  Name = C:\Users\sofiya chavarekar\OneDrive\Assignment- Module 1\PROJECT(AI-based drug target identification for SDH-related rare disorders)\Data\Ligands\PDB\Ligand_0021.pdb
REMARK  1 active torsions:
REMARK  status: ('A' for Active; 'I' for Inactive)
REMARK    1  A    between atoms: N_1  and  C_2
REMARK                            x       y       z     vdW  Elec       q    Type
REMARK                         _______ _______ _______ _____ _____    ______ ____
ROOT
ATOM      1  C   UNL     1     -11.133   6.654  24.803  0.00  0.00    +0.000 A 
ATOM      2  C   UNL     1     -12.303   7.295  25.229  0.00  0.00    +0.000 A 
ATOM      3  C   UNL     1     -13.203   6.741  26.162  0.00  0.00    +0.000 A 
ATOM      4  C   UNL     1     -14.429   7.411  26.544  0.00  0.00    +0.000 A 
ATOM      5  C   UNL     1     -14.847   8.676  26.051  0.00  0.00    +0.000 A 
ATOM      6  C   UNL     1     -16.048   9.276  26.436  0.00  0.00    +0.000 A 
ATOM      7  C   UNL     1     -16.883   8.634  27.338  0.00  0.00    +0.000 A 
ATOM      8  C   UNL     1     -16.510   7.395  27.849  0.00  0.00    +0.000 A 
ATOM      9  C   UNL     1     -15.304   6.784  27.462  0.00  0.00    +0.000 A 
ATOM     10  C   UNL     1     -14.970   5.542  27.990  0.00  0.00    +0.000 A 
ATOM     11  C   UNL     1     -13.787   4.906  27.619  0.00  0.00    +0.000 A 
ATOM     12  C   UNL     1     -12.871   5.469  26.701  0.00  0.00    +0.000 A 
ATOM     13  C   UNL     1     -11.653   4.802  26.303  0.00  0.00    +0.000 A 
ATOM     14  C   UNL     1     -11.256   3.538  26.827  0.00  0.00    +0.000 A 
ATOM     15  C   UNL     1     -10.069   2.902  26.454  0.00  0.00    +0.000 A 
ATOM     16  C   UNL     1      -9.225   3.510  25.548  0.00  0.00    +0.000 A 
ATOM     17  C   UNL     1      -9.581   4.741  25.003  0.00  0.00    +0.000 A 
ATOM     18  C   UNL     1     -10.786   5.402  25.353  0.00  0.00    +0.000 A 
ENDROOT
BRANCH   1  19
ATOM     19  N   UNL     1     -10.433   7.261  23.745  0.00  0.00    +0.000 N 
ATOM     20  H   UNL     1     -10.385   8.269  23.731  0.00  0.00    +0.000 HD
ATOM     21  H   UNL     1     -10.606   6.846  22.834  0.00  0.00    +0.000 HD
ENDBRANCH   1  19
TORSDOF 1
ENDMDL
MODEL 2
REMARK VINA RESULT:    -6.917      2.328      3.842
REMARK INTER + INTRA:          -7.119
REMARK INTER:                  -7.119
REMARK INTRA:                   0.000
REMARK UNBOUND:                 0.000
REMARK  Name = C:\Users\sofiya chavarekar\OneDrive\Assignment- Module 1\PROJECT(AI-based drug target identification for SDH-related rare disorders)\Data\Ligands\PDB\Ligand_0021.pdb
REMARK  1 active torsions:
REMARK  status: ('A' for Active; 'I' for Inactive)
REMARK    1  A    between atoms: N_1  and  C_2
REMARK                            x       y       z     vdW  Elec       q    Type
REMARK                         _______ _______ _______ _____ _____    ______ ____
ROOT
ATOM      1  C   UNL     1     -13.821   3.825  27.156  0.00  0.00    +0.000 A 
ATOM      2  C   UNL     1     -15.170   4.132  27.378  0.00  0.00    +0.000 A 
ATOM      3  C   UNL     1     -15.741   5.391  27.101  0.00  0.00    +0.000 A 
ATOM      4  C   UNL     1     -17.129   5.688  27.387  0.00  0.00    +0.000 A 
ATOM      5  C   UNL     1     -18.054   4.767  27.949  0.00  0.00    +0.000 A 
ATOM      6  C   UNL     1     -19.381   5.105  28.224  0.00  0.00    +0.000 A 
ATOM      7  C   UNL     1     -19.841   6.384  27.944  0.00  0.00    +0.000 A 
ATOM      8  C   UNL     1     -18.969   7.315  27.389  0.00  0.00    +0.000 A 
ATOM      9  C   UNL     1     -17.631   6.982  27.115  0.00  0.00    +0.000 A 
ATOM     10  C   UNL     1     -16.789   7.944  26.567  0.00  0.00    +0.000 A 
ATOM     11  C   UNL     1     -15.456   7.647  26.291  0.00  0.00    +0.000 A 
ATOM     12  C   UNL     1     -14.885   6.380  26.547  0.00  0.00    +0.000 A 
ATOM     13  C   UNL     1     -13.498   6.078  26.277  0.00  0.00    +0.000 A 
ATOM     14  C   UNL     1     -12.598   7.021  25.701  0.00  0.00    +0.000 A 
ATOM     15  C   UNL     1     -11.262   6.722  25.425  0.00  0.00    +0.000 A 
ATOM     16  C   UNL     1     -10.772   5.464  25.706  0.00  0.00    +0.000 A 
ATOM     17  C   UNL     1     -11.616   4.515  26.280  0.00  0.00    +0.000 A 
ATOM     18  C   UNL     1     -12.972   4.796  26.584  0.00  0.00    +0.000 A 
ENDROOT
BRANCH   1  19
ATOM     19  N   UNL     1     -13.369   2.585  27.642  0.00  0.00    +0.000 N 
ATOM     20  H   UNL     1     -12.605   2.589  28.302  0.00  0.00    +0.000 HD
ATOM     21  H   UNL     1     -13.297   1.858  26.936  0.00  0.00    +0.000 HD
ENDBRANCH   1  19
TORSDOF 1
ENDMDL
MODEL 3
REMARK VINA RESULT:    -6.743      1.862      6.353
REMARK INTER + INTRA:          -6.940
REMARK INTER:                  -6.940
REMARK INTRA:                   0.000
REMARK UNBOUND:                 0.000
REMARK  Name = C:\Users\sofiya chavarekar\OneDrive\Assignment- Module 1\PROJECT(AI-based drug target identification for SDH-related rare disorders)\Data\Ligands\PDB\Ligand_0021.pdb
REMARK  1 active torsions:
REMARK  status: ('A' for Active; 'I' for Inactive)
REMARK    1  A    between atoms: N_1  and  C_2
REMARK                            x       y       z     vdW  Elec       q    Type
REMARK                         _______ _______ _______ _____ _____    ______ ____
ROOT
ATOM      1  C   UNL     1     -15.119   5.243  28.071  0.00  0.00    +0.000 A 
ATOM      2  C   UNL     1     -13.886   4.678  27.722  0.00  0.00    +0.000 A 
ATOM      3  C   UNL     1     -12.966   5.288  26.844  0.00  0.00    +0.000 A 
ATOM      4  C   UNL     1     -11.721   4.653  26.467  0.00  0.00    +0.000 A 
ATOM      5  C   UNL     1     -11.285   3.385  26.939  0.00  0.00    +0.000 A 
ATOM      6  C   UNL     1     -10.081   2.805  26.534  0.00  0.00    +0.000 A 
ATOM      7  C   UNL     1      -9.258   3.471  25.638  0.00  0.00    +0.000 A 
ATOM      8  C   UNL     1      -9.646   4.717  25.155  0.00  0.00    +0.000 A 
ATOM      9  C   UNL     1     -10.858   5.305  25.556  0.00  0.00    +0.000 A 
ATOM     10  C   UNL     1     -11.213   6.549  25.044  0.00  0.00    +0.000 A 
ATOM     11  C   UNL     1     -12.412   7.154  25.415  0.00  0.00    +0.000 A 
ATOM     12  C   UNL     1     -13.326   6.556  26.313  0.00  0.00    +0.000 A 
ATOM     13  C   UNL     1     -14.578   7.175  26.684  0.00  0.00    +0.000 A 
ATOM     14  C   UNL     1     -14.980   8.455  26.202  0.00  0.00    +0.000 A 
ATOM     15  C   UNL     1     -16.183   9.060  26.575  0.00  0.00    +0.000 A 
ATOM     16  C   UNL     1     -17.028   8.414  27.453  0.00  0.00    +0.000 A 
ATOM     17  C   UNL     1     -16.677   7.157  27.938  0.00  0.00    +0.000 A 
ATOM     18  C   UNL     1     -15.470   6.513  27.566  0.00  0.00    +0.000 A 
ENDROOT
BRANCH   1  19
ATOM     19  N   UNL     1     -15.993   4.434  28.820  0.00  0.00    +0.000 N 
ATOM     20  H   UNL     1     -16.982   4.517  28.637  0.00  0.00    +0.000 HD
ATOM     21  H   UNL     1     -15.762   4.370  29.807  0.00  0.00    +0.000 HD
ENDBRANCH   1  19
TORSDOF 1
ENDMDL
MODEL 4
REMARK VINA RESULT:    -6.718      2.374      6.266
REMARK INTER + INTRA:          -6.915
REMARK INTER:                  -6.915
REMARK INTRA:                   0.000
REMARK UNBOUND:                 0.000
REMARK  Name = C:\Users\sofiya chavarekar\OneDrive\Assignment- Module 1\PROJECT(AI-based drug target identification for SDH-related rare disorders)\Data\Ligands\PDB\Ligand_0021.pdb
REMARK  1 active torsions:
REMARK  status: ('A' for Active; 'I' for Inactive)
REMARK    1  A    between atoms: N_1  and  C_2
REMARK                            x       y       z     vdW  Elec       q    Type
REMARK                         _______ _______ _______ _____ _____    ______ ____
ROOT
ATOM      1  C   UNL     1     -15.129   4.114  28.793  0.00  0.00    +0.000 A 
ATOM      2  C   UNL     1     -13.939   4.297  28.076  0.00  0.00    +0.000 A 
ATOM      3  C   UNL     1     -13.720   5.366  27.184  0.00  0.00    +0.000 A 
ATOM      4  C   UNL     1     -12.496   5.498  26.422  0.00  0.00    +0.000 A 
ATOM      5  C   UNL     1     -11.397   4.600  26.497  0.00  0.00    +0.000 A 
ATOM      6  C   UNL     1     -10.241   4.759  25.729  0.00  0.00    +0.000 A 
ATOM      7  C   UNL     1     -10.134   5.829  24.853  0.00  0.00    +0.000 A 
ATOM      8  C   UNL     1     -11.185   6.734  24.752  0.00  0.00    +0.000 A 
ATOM      9  C   UNL     1     -12.354   6.577  25.519  0.00  0.00    +0.000 A 
ATOM     10  C   UNL     1     -13.385   7.500  25.385  0.00  0.00    +0.000 A 
ATOM     11  C   UNL     1     -14.559   7.368  26.124  0.00  0.00    +0.000 A 
ATOM     12  C   UNL     1     -14.773   6.309  27.036  0.00  0.00    +0.000 A 
ATOM     13  C   UNL     1     -15.997   6.161  27.790  0.00  0.00    +0.000 A 
ATOM     14  C   UNL     1     -17.077   7.088  27.702  0.00  0.00    +0.000 A 
ATOM     15  C   UNL     1     -18.253   6.953  28.444  0.00  0.00    +0.000 A 
ATOM     16  C   UNL     1     -18.393   5.891  29.312  0.00  0.00    +0.000 A 
ATOM     17  C   UNL     1     -17.366   4.957  29.420  0.00  0.00    +0.000 A 
ATOM     18  C   UNL     1     -16.168   5.061  28.669  0.00  0.00    +0.000 A 
ENDROOT
BRANCH   1  19
ATOM     19  N   UNL     1     -15.254   2.910  29.509  0.00  0.00    +0.000 N 
ATOM     20  H   UNL     1     -14.459   2.602  30.051  0.00  0.00    +0.000 HD
ATOM     21  H   UNL     1     -15.716   2.164  28.998  0.00  0.00    +0.000 HD
ENDBRANCH   1  19
TORSDOF 1
ENDMDL
MODEL 5
REMARK VINA RESULT:    -6.660      2.606      4.228
REMARK INTER + INTRA:          -6.855
REMARK INTER:                  -6.855
REMARK INTRA:                   0.000
REMARK UNBOUND:                 0.000
REMARK  Name = C:\Users\sofiya chavarekar\OneDrive\Assignment- Module 1\PROJECT(AI-based drug target identification for SDH-related rare disorders)\Data\Ligands\PDB\Ligand_0021.pdb
REMARK  1 active torsions:
REMARK  status: ('A' for Active; 'I' for Inactive)
REMARK    1  A    between atoms: N_1  and  C_2
REMARK                            x       y       z     vdW  Elec       q    Type
REMARK                         _______ _______ _______ _____ _____    ______ ____
ROOT
ATOM      1  C   UNL     1     -14.760   6.787  26.361  0.00  0.00    +0.000 A 
ATOM      2  C   UNL     1     -15.636   6.001  27.121  0.00  0.00    +0.000 A 
ATOM      3  C   UNL     1     -15.298   4.736  27.644  0.00  0.00    +0.000 A 
ATOM      4  C   UNL     1     -16.245   3.929  28.385  0.00  0.00    +0.000 A 
ATOM      5  C   UNL     1     -17.582   4.314  28.677  0.00  0.00    +0.000 A 
ATOM      6  C   UNL     1     -18.465   3.493  29.382  0.00  0.00    +0.000 A 
ATOM      7  C   UNL     1     -18.047   2.248  29.828  0.00  0.00    +0.000 A 
ATOM      8  C   UNL     1     -16.744   1.834  29.567  0.00  0.00    +0.000 A 
ATOM      9  C   UNL     1     -15.851   2.654  28.854  0.00  0.00    +0.000 A 
ATOM     10  C   UNL     1     -14.560   2.201  28.608  0.00  0.00    +0.000 A 
ATOM     11  C   UNL     1     -13.654   2.986  27.898  0.00  0.00    +0.000 A 
ATOM     12  C   UNL     1     -13.982   4.264  27.390  0.00  0.00    +0.000 A 
ATOM     13  C   UNL     1     -13.049   5.071  26.638  0.00  0.00    +0.000 A 
ATOM     14  C   UNL     1     -11.710   4.660  26.373  0.00  0.00    +0.000 A 
ATOM     15  C   UNL     1     -10.804   5.449  25.660  0.00  0.00    +0.000 A 
ATOM     16  C   UNL     1     -11.196   6.685  25.192  0.00  0.00    +0.000 A 
ATOM     17  C   UNL     1     -12.500   7.119  25.420  0.00  0.00    +0.000 A 
ATOM     18  C   UNL     1     -13.445   6.333  26.127  0.00  0.00    +0.000 A 
ENDROOT
BRANCH   1  19
ATOM     19  N   UNL     1     -15.303   7.942  25.771  0.00  0.00    +0.000 N 
ATOM     20  H   UNL     1     -14.659   8.632  25.411  0.00  0.00    +0.000 HD
ATOM     21  H   UNL     1     -16.091   8.340  26.272  0.00  0.00    +0.000 HD
ENDBRANCH   1  19
TORSDOF 1
ENDMDL
MODEL 6
REMARK VINA RESULT:    -6.590      1.519      5.752
REMARK INTER + INTRA:          -6.783
REMARK INTER:                  -6.783
REMARK INTRA:                   0.000
REMARK UNBOUND:                 0.000
REMARK  Name = C:\Users\sofiya chavarekar\OneDrive\Assignment- Module 1\PROJECT(AI-based drug target identification for SDH-related rare disorders)\Data\Ligands\PDB\Ligand_0021.pdb
REMARK  1 active torsions:
REMARK  status: ('A' for Active; 'I' for Inactive)
REMARK    1  A    between atoms: N_1  and  C_2
REMARK                            x       y       z     vdW  Elec       q    Type
REMARK                         _______ _______ _______ _____ _____    ______ ____
ROOT
ATOM      1  C   UNL     1     -14.553   7.958  25.922  0.00  0.00    +0.000 A 
ATOM      2  C   UNL     1     -13.395   7.178  25.809  0.00  0.00    +0.000 A 
ATOM      3  C   UNL     1     -13.275   5.875  26.336  0.00  0.00    +0.000 A 
ATOM      4  C   UNL     1     -12.045   5.116  26.243  0.00  0.00    +0.000 A 
ATOM      5  C   UNL     1     -10.857   5.575  25.613  0.00  0.00    +0.000 A 
ATOM      6  C   UNL     1      -9.688   4.811  25.563  0.00  0.00    +0.000 A 
ATOM      7  C   UNL     1      -9.660   3.551  26.141  0.00  0.00    +0.000 A 
ATOM      8  C   UNL     1     -10.804   3.062  26.765  0.00  0.00    +0.000 A 
ATOM      9  C   UNL     1     -11.982   3.827  26.822  0.00  0.00    +0.000 A 
ATOM     10  C   UNL     1     -13.101   3.305  27.461  0.00  0.00    +0.000 A 
ATOM     11  C   UNL     1     -14.281   4.042  27.543  0.00  0.00    +0.000 A 
ATOM     12  C   UNL     1     -14.413   5.339  26.996  0.00  0.00    +0.000 A 
ATOM     13  C   UNL     1     -15.630   6.111  27.096  0.00  0.00    +0.000 A 
ATOM     14  C   UNL     1     -16.810   5.616  27.724  0.00  0.00    +0.000 A 
ATOM     15  C   UNL     1     -17.992   6.357  27.805  0.00  0.00    +0.000 A 
ATOM     16  C   UNL     1     -18.046   7.619  27.252  0.00  0.00    +0.000 A 
ATOM     17  C   UNL     1     -16.911   8.144  26.638  0.00  0.00    +0.000 A 
ATOM     18  C   UNL     1     -15.694   7.420  26.555  0.00  0.00    +0.000 A 
ENDROOT
BRANCH   1  19
ATOM     19  N   UNL     1     -14.456   9.294  25.494  0.00  0.00    +0.000 N 
ATOM     20  H   UNL     1     -15.297   9.742  25.160  0.00  0.00    +0.000 HD
ATOM     21  H   UNL     1     -13.633   9.497  24.935  0.00  0.00    +0.000 HD
ENDBRANCH   1  19
TORSDOF 1
ENDMDL
MODEL 7
REMARK VINA RESULT:    -6.523      2.612      6.099
REMARK INTER + INTRA:          -6.714
REMARK INTER:                  -6.714
REMARK INTRA:                   0.000
REMARK UNBOUND:                 0.000
REMARK  Name = C:\Users\sofiya chavarekar\OneDrive\Assignment- Module 1\PROJECT(AI-based drug target identification for SDH-related rare disorders)\Data\Ligands\PDB\Ligand_0021.pdb
REMARK  1 active torsions:
REMARK  status: ('A' for Active; 'I' for Inactive)
REMARK    1  A    between atoms: N_1  and  C_2
REMARK                            x       y       z     vdW  Elec       q    Type
REMARK                         _______ _______ _______ _____ _____    ______ ____
ROOT
ATOM      1  C   UNL     1     -16.948   7.330  26.939  0.00  0.00    +0.000 A 
ATOM      2  C   UNL     1     -15.615   7.163  26.542  0.00  0.00    +0.000 A 
ATOM      3  C   UNL     1     -14.882   5.975  26.744  0.00  0.00    +0.000 A 
ATOM      4  C   UNL     1     -13.490   5.853  26.365  0.00  0.00    +0.000 A 
ATOM      5  C   UNL     1     -12.727   6.881  25.746  0.00  0.00    +0.000 A 
ATOM      6  C   UNL     1     -11.380   6.722  25.413  0.00  0.00    +0.000 A 
ATOM      7  C   UNL     1     -10.737   5.523  25.683  0.00  0.00    +0.000 A 
ATOM      8  C   UNL     1     -11.449   4.489  26.284  0.00  0.00    +0.000 A 
ATOM      9  C   UNL     1     -12.804   4.644  26.626  0.00  0.00    +0.000 A 
ATOM     10  C   UNL     1     -13.478   3.589  27.231  0.00  0.00    +0.000 A 
ATOM     11  C   UNL     1     -14.819   3.715  27.590  0.00  0.00    +0.000 A 
ATOM     12  C   UNL     1     -15.563   4.896  27.369  0.00  0.00    +0.000 A 
ATOM     13  C   UNL     1     -16.948   5.032  27.757  0.00  0.00    +0.000 A 
ATOM     14  C   UNL     1     -17.689   3.977  28.364  0.00  0.00    +0.000 A 
ATOM     15  C   UNL     1     -19.033   4.105  28.723  0.00  0.00    +0.000 A 
ATOM     16  C   UNL     1     -19.694   5.290  28.480  0.00  0.00    +0.000 A 
ATOM     17  C   UNL     1     -19.004   6.351  27.898  0.00  0.00    +0.000 A 
ATOM     18  C   UNL     1     -17.636   6.254  27.537  0.00  0.00    +0.000 A 
ENDROOT
BRANCH   1  19
ATOM     19  N   UNL     1     -17.482   8.626  26.820  0.00  0.00    +0.000 N 
ATOM     20  H   UNL     1     -18.377   8.725  26.364  0.00  0.00    +0.000 HD
ATOM     21  H   UNL     1     -16.806   9.336  26.553  0.00  0.00    +0.000 HD
ENDBRANCH   1  19
TORSDOF 1
ENDMDL
MODEL 8
REMARK VINA RESULT:    -6.249      2.269      3.839
REMARK INTER + INTRA:          -6.432
REMARK INTER:                  -6.432
REMARK INTRA:                   0.000
REMARK UNBOUND:                 0.000
REMARK  Name = C:\Users\sofiya chavarekar\OneDrive\Assignment- Module 1\PROJECT(AI-based drug target identification for SDH-related rare disorders)\Data\Ligands\PDB\Ligand_0021.pdb
REMARK  1 active torsions:
REMARK  status: ('A' for Active; 'I' for Inactive)
REMARK    1  A    between atoms: N_1  and  C_2
REMARK                            x       y       z     vdW  Elec       q    Type
REMARK                         _______ _______ _______ _____ _____    ______ ____
ROOT
ATOM      1  C   UNL     1     -13.636   7.216  25.782  0.00  0.00    +0.000 A 
ATOM      2  C   UNL     1     -14.213   8.483  25.940  0.00  0.00    +0.000 A 
ATOM      3  C   UNL     1     -15.276   8.754  26.826  0.00  0.00    +0.000 A 
ATOM      4  C   UNL     1     -15.880  10.066  26.928  0.00  0.00    +0.000 A 
ATOM      5  C   UNL     1     -15.473  11.204  26.181  0.00  0.00    +0.000 A 
ATOM      6  C   UNL     1     -16.099  12.447  26.302  0.00  0.00    +0.000 A 
ATOM      7  C   UNL     1     -17.161  12.605  27.180  0.00  0.00    +0.000 A 
ATOM      8  C   UNL     1     -17.588  11.516  27.934  0.00  0.00    +0.000 A 
ATOM      9  C   UNL     1     -16.966  10.261  27.814  0.00  0.00    +0.000 A 
ATOM     10  C   UNL     1     -17.427   9.197  28.579  0.00  0.00    +0.000 A 
ATOM     11  C   UNL     1     -16.837   7.938  28.477  0.00  0.00    +0.000 A 
ATOM     12  C   UNL     1     -15.757   7.668  27.606  0.00  0.00    +0.000 A 
ATOM     13  C   UNL     1     -15.156   6.360  27.487  0.00  0.00    +0.000 A 
ATOM     14  C   UNL     1     -15.580   5.240  28.260  0.00  0.00    +0.000 A 
ATOM     15  C   UNL     1     -14.987   3.980  28.156  0.00  0.00    +0.000 A 
ATOM     16  C   UNL     1     -13.939   3.789  27.280  0.00  0.00    +0.000 A 
ATOM     17  C   UNL     1     -13.501   4.855  26.498  0.00  0.00    +0.000 A 
ATOM     18  C   UNL     1     -14.094   6.141  26.573  0.00  0.00    +0.000 A 
ENDROOT
BRANCH   1  19
ATOM     19  N   UNL     1     -12.703   7.075  24.739  0.00  0.00    +0.000 N 
ATOM     20  H   UNL     1     -11.972   6.388  24.854  0.00  0.00    +0.000 HD
ATOM     21  H   UNL     1     -12.383   7.952  24.340  0.00  0.00    +0.000 HD
ENDBRANCH   1  19
TORSDOF 1
ENDMDL
MODEL 9
REMARK VINA RESULT:    -6.195      2.820      5.959
REMARK INTER + INTRA:          -6.376
REMARK INTER:                  -6.376
REMARK INTRA:                   0.000
REMARK UNBOUND:                 0.000
REMARK  Name = C:\Users\sofiya chavarekar\OneDrive\Assignment- Module 1\PROJECT(AI-based drug target identification for SDH-related rare disorders)\Data\Ligands\PDB\Ligand_0021.pdb
REMARK  1 active torsions:
REMARK  status: ('A' for Active; 'I' for Inactive)
REMARK    1  A    between atoms: N_1  and  C_2
REMARK                            x       y       z     vdW  Elec       q    Type
REMARK                         _______ _______ _______ _____ _____    ______ ____
ROOT
ATOM      1  C   UNL     1     -13.044   5.402  26.634  0.00  0.00    +0.000 A 
ATOM      2  C   UNL     1     -13.043   4.097  27.145  0.00  0.00    +0.000 A 
ATOM      3  C   UNL     1     -14.173   3.482  27.721  0.00  0.00    +0.000 A 
ATOM      4  C   UNL     1     -14.124   2.148  28.283  0.00  0.00    +0.000 A 
ATOM      5  C   UNL     1     -12.968   1.321  28.303  0.00  0.00    +0.000 A 
ATOM      6  C   UNL     1     -12.964   0.046  28.873  0.00  0.00    +0.000 A 
ATOM      7  C   UNL     1     -14.122  -0.459  29.446  0.00  0.00    +0.000 A 
ATOM      8  C   UNL     1     -15.277   0.316  29.443  0.00  0.00    +0.000 A 
ATOM      9  C   UNL     1     -15.286   1.602  28.875  0.00  0.00    +0.000 A 
ATOM     10  C   UNL     1     -16.460   2.348  28.899  0.00  0.00    +0.000 A 
ATOM     11  C   UNL     1     -16.499   3.629  28.353  0.00  0.00    +0.000 A 
ATOM     12  C   UNL     1     -15.374   4.241  27.755  0.00  0.00    +0.000 A 
ATOM     13  C   UNL     1     -15.409   5.576  27.204  0.00  0.00    +0.000 A 
ATOM     14  C   UNL     1     -16.590   6.375  27.187  0.00  0.00    +0.000 A 
ATOM     15  C   UNL     1     -16.626   7.660  26.639  0.00  0.00    +0.000 A 
ATOM     16  C   UNL     1     -15.487   8.194  26.076  0.00  0.00    +0.000 A 
ATOM     17  C   UNL     1     -14.310   7.450  26.081  0.00  0.00    +0.000 A 
ATOM     18  C   UNL     1     -14.240   6.150  26.643  0.00  0.00    +0.000 A 
ENDROOT
BRANCH   1  19
ATOM     19  N   UNL     1     -11.797   5.928  26.250  0.00  0.00    +0.000 N 
ATOM     20  H   UNL     1     -11.499   5.779  25.298  0.00  0.00    +0.000 HD
ATOM     21  H   UNL     1     -11.059   5.802  26.936  0.00  0.00    +0.000 HD
ENDBRANCH   1  19
TORSDOF 1
ENDMDL
