MODEL 1
REMARK VINA RESULT:    -5.616      0.000      0.000
REMARK INTER + INTRA:          -5.616
REMARK INTER:                  -5.616
REMARK INTRA:                   0.000
REMARK UNBOUND:                 0.000
REMARK  Name = C:\Users\sofiya chavarekar\OneDrive\Assignment- Module 1\PROJECT(AI-based drug target identification for SDH-related rare disorders)\Data\Ligands\PDB\Ligand_0015.pdb
REMARK  2 active torsions:
REMARK  status: ('A' for Active; 'I' for Inactive)
REMARK    1  A    between atoms: C_1  and  C_2
REMARK    2  A    between atoms: C_4  and  C_5
REMARK                            x       y       z     vdW  Elec       q    Type
REMARK                         _______ _______ _______ _____ _____    ______ ____
ROOT
ATOM      1  C   UNL     1     -10.791   5.438  26.007  0.00  0.00    +0.000 C 
ATOM      2  C   UNL     1     -12.243   5.751  26.215  0.00  0.00    +0.000 A 
ATOM      3  C   UNL     1     -13.124   4.744  26.620  0.00  0.00    +0.000 A 
ATOM      4  C   UNL     1     -14.481   5.017  26.859  0.00  0.00    +0.000 A 
ATOM      5  C   UNL     1     -15.377   3.883  27.282  0.00  0.00    +0.000 C 
ATOM      6  C   UNL     1     -14.975   6.338  26.700  0.00  0.00    +0.000 A 
ATOM      7  C   UNL     1     -16.317   6.704  26.947  0.00  0.00    +0.000 A 
ATOM      8  C   UNL     1     -16.761   8.018  26.787  0.00  0.00    +0.000 A 
ATOM      9  C   UNL     1     -15.877   9.000  26.362  0.00  0.00    +0.000 A 
ATOM     10  C   UNL     1     -14.548   8.671  26.107  0.00  0.00    +0.000 A 
ATOM     11  C   UNL     1     -14.082   7.355  26.277  0.00  0.00    +0.000 A 
ATOM     12  C   UNL     1     -12.733   7.046  26.040  0.00  0.00    +0.000 A 
ENDROOT
TORSDOF 0
ENDMDL
MODEL 2
REMARK VINA RESULT:    -5.478      0.958      3.932
REMARK INTER + INTRA:          -5.478
REMARK INTER:                  -5.478
REMARK INTRA:                   0.000
REMARK UNBOUND:                 0.000
REMARK  Name = C:\Users\sofiya chavarekar\OneDrive\Assignment- Module 1\PROJECT(AI-based drug target identification for SDH-related rare disorders)\Data\Ligands\PDB\Ligand_0015.pdb
REMARK  2 active torsions:
REMARK  status: ('A' for Active; 'I' for Inactive)
REMARK    1  A    between atoms: C_1  and  C_2
REMARK    2  A    between atoms: C_4  and  C_5
REMARK                            x       y       z     vdW  Elec       q    Type
REMARK                         _______ _______ _______ _____ _____    ______ ____
ROOT
ATOM      1  C   UNL     1     -16.552   8.172  26.441  0.00  0.00    +0.000 C 
ATOM      2  C   UNL     1     -15.316   7.327  26.520  0.00  0.00    +0.000 A 
ATOM      3  C   UNL     1     -15.292   6.200  27.347  0.00  0.00    +0.000 A 
ATOM      4  C   UNL     1     -14.161   5.368  27.410  0.00  0.00    +0.000 A 
ATOM      5  C   UNL     1     -14.199   4.177  28.330  0.00  0.00    +0.000 C 
ATOM      6  C   UNL     1     -13.022   5.664  26.618  0.00  0.00    +0.000 A 
ATOM      7  C   UNL     1     -11.856   4.865  26.601  0.00  0.00    +0.000 A 
ATOM      8  C   UNL     1     -10.758   5.186  25.800  0.00  0.00    +0.000 A 
ATOM      9  C   UNL     1     -10.792   6.322  25.003  0.00  0.00    +0.000 A 
ATOM     10  C   UNL     1     -11.925   7.132  25.000  0.00  0.00    +0.000 A 
ATOM     11  C   UNL     1     -13.044   6.815  25.791  0.00  0.00    +0.000 A 
ATOM     12  C   UNL     1     -14.188   7.628  25.756  0.00  0.00    +0.000 A 
ENDROOT
TORSDOF 0
ENDMDL
MODEL 3
REMARK VINA RESULT:    -5.390      0.905      3.924
REMARK INTER + INTRA:          -5.390
REMARK INTER:                  -5.390
REMARK INTRA:                   0.000
REMARK UNBOUND:                 0.000
REMARK  Name = C:\Users\sofiya chavarekar\OneDrive\Assignment- Module 1\PROJECT(AI-based drug target identification for SDH-related rare disorders)\Data\Ligands\PDB\Ligand_0015.pdb
REMARK  2 active torsions:
REMARK  status: ('A' for Active; 'I' for Inactive)
REMARK    1  A    between atoms: C_1  and  C_2
REMARK    2  A    between atoms: C_4  and  C_5
REMARK                            x       y       z     vdW  Elec       q    Type
REMARK                         _______ _______ _______ _____ _____    ______ ____
ROOT
ATOM      1  C   UNL     1     -14.641   9.374  26.116  0.00  0.00    +0.000 C 
ATOM      2  C   UNL     1     -14.349   7.915  26.309  0.00  0.00    +0.000 A 
ATOM      3  C   UNL     1     -13.048   7.434  26.136  0.00  0.00    +0.000 A 
ATOM      4  C   UNL     1     -12.739   6.080  26.349  0.00  0.00    +0.000 A 
ATOM      5  C   UNL     1     -11.319   5.627  26.134  0.00  0.00    +0.000 C 
ATOM      6  C   UNL     1     -13.757   5.178  26.754  0.00  0.00    +0.000 A 
ATOM      7  C   UNL     1     -13.526   3.809  27.016  0.00  0.00    +0.000 A 
ATOM      8  C   UNL     1     -14.555   2.956  27.422  0.00  0.00    +0.000 A 
ATOM      9  C   UNL     1     -15.845   3.447  27.566  0.00  0.00    +0.000 A 
ATOM     10  C   UNL     1     -16.106   4.792  27.312  0.00  0.00    +0.000 A 
ATOM     11  C   UNL     1     -15.078   5.667  26.915  0.00  0.00    +0.000 A 
ATOM     12  C   UNL     1     -15.354   7.024  26.689  0.00  0.00    +0.000 A 
ENDROOT
TORSDOF 0
ENDMDL
MODEL 4
REMARK VINA RESULT:    -5.359      0.858      3.035
REMARK INTER + INTRA:          -5.359
REMARK INTER:                  -5.359
REMARK INTRA:                   0.000
REMARK UNBOUND:                 0.000
REMARK  Name = C:\Users\sofiya chavarekar\OneDrive\Assignment- Module 1\PROJECT(AI-based drug target identification for SDH-related rare disorders)\Data\Ligands\PDB\Ligand_0015.pdb
REMARK  2 active torsions:
REMARK  status: ('A' for Active; 'I' for Inactive)
REMARK    1  A    between atoms: C_1  and  C_2
REMARK    2  A    between atoms: C_4  and  C_5
REMARK                            x       y       z     vdW  Elec       q    Type
REMARK                         _______ _______ _______ _____ _____    ______ ____
ROOT
ATOM      1  C   UNL     1     -10.467   5.206  25.749  0.00  0.00    +0.000 C 
ATOM      2  C   UNL     1     -11.891   5.507  26.114  0.00  0.00    +0.000 A 
ATOM      3  C   UNL     1     -12.386   6.807  25.983  0.00  0.00    +0.000 A 
ATOM      4  C   UNL     1     -13.726   7.109  26.281  0.00  0.00    +0.000 A 
ATOM      5  C   UNL     1     -14.190   8.533  26.128  0.00  0.00    +0.000 C 
ATOM      6  C   UNL     1     -14.602   6.080  26.715  0.00  0.00    +0.000 A 
ATOM      7  C   UNL     1     -15.968   6.293  27.007  0.00  0.00    +0.000 A 
ATOM      8  C   UNL     1     -16.800   5.251  27.424  0.00  0.00    +0.000 A 
ATOM      9  C   UNL     1     -16.284   3.970  27.570  0.00  0.00    +0.000 A 
ATOM     10  C   UNL     1     -14.941   3.730  27.293  0.00  0.00    +0.000 A 
ATOM     11  C   UNL     1     -14.093   4.765  26.860  0.00  0.00    +0.000 A 
ATOM     12  C   UNL     1     -12.748   4.499  26.560  0.00  0.00    +0.000 A 
ENDROOT
TORSDOF 0
ENDMDL
MODEL 5
REMARK VINA RESULT:    -5.277      0.837      2.878
REMARK INTER + INTRA:          -5.277
REMARK INTER:                  -5.277
REMARK INTRA:                   0.000
REMARK UNBOUND:                 0.000
REMARK  Name = C:\Users\sofiya chavarekar\OneDrive\Assignment- Module 1\PROJECT(AI-based drug target identification for SDH-related rare disorders)\Data\Ligands\PDB\Ligand_0015.pdb
REMARK  2 active torsions:
REMARK  status: ('A' for Active; 'I' for Inactive)
REMARK    1  A    between atoms: C_1  and  C_2
REMARK    2  A    between atoms: C_4  and  C_5
REMARK                            x       y       z     vdW  Elec       q    Type
REMARK                         _______ _______ _______ _____ _____    ______ ____
ROOT
ATOM      1  C   UNL     1     -14.559   2.356  27.596  0.00  0.00    +0.000 C 
ATOM      2  C   UNL     1     -14.319   3.793  27.238  0.00  0.00    +0.000 A 
ATOM      3  C   UNL     1     -13.038   4.217  26.873  0.00  0.00    +0.000 A 
ATOM      4  C   UNL     1     -12.794   5.548  26.495  0.00  0.00    +0.000 A 
ATOM      5  C   UNL     1     -11.388   5.941  26.124  0.00  0.00    +0.000 C 
ATOM      6  C   UNL     1     -13.860   6.484  26.472  0.00  0.00    +0.000 A 
ATOM      7  C   UNL     1     -13.706   7.832  26.078  0.00  0.00    +0.000 A 
ATOM      8  C   UNL     1     -14.784   8.720  26.061  0.00  0.00    +0.000 A 
ATOM      9  C   UNL     1     -16.044   8.285  26.449  0.00  0.00    +0.000 A 
ATOM     10  C   UNL     1     -16.228   6.963  26.846  0.00  0.00    +0.000 A 
ATOM     11  C   UNL     1     -15.155   6.053  26.856  0.00  0.00    +0.000 A 
ATOM     12  C   UNL     1     -15.365   4.718  27.233  0.00  0.00    +0.000 A 
ENDROOT
TORSDOF 0
ENDMDL
MODEL 6
REMARK VINA RESULT:    -5.268      1.182      4.077
REMARK INTER + INTRA:          -5.268
REMARK INTER:                  -5.268
REMARK INTRA:                   0.000
REMARK UNBOUND:                 0.000
REMARK  Name = C:\Users\sofiya chavarekar\OneDrive\Assignment- Module 1\PROJECT(AI-based drug target identification for SDH-related rare disorders)\Data\Ligands\PDB\Ligand_0015.pdb
REMARK  2 active torsions:
REMARK  status: ('A' for Active; 'I' for Inactive)
REMARK    1  A    between atoms: C_1  and  C_2
REMARK    2  A    between atoms: C_4  and  C_5
REMARK                            x       y       z     vdW  Elec       q    Type
REMARK                         _______ _______ _______ _____ _____    ______ ____
ROOT
ATOM      1  C   UNL     1     -15.905   4.439  29.425  0.00  0.00    +0.000 C 
ATOM      2  C   UNL     1     -15.185   5.171  28.331  0.00  0.00    +0.000 A 
ATOM      3  C   UNL     1     -15.779   6.282  27.726  0.00  0.00    +0.000 A 
ATOM      4  C   UNL     1     -15.111   7.009  26.726  0.00  0.00    +0.000 A 
ATOM      5  C   UNL     1     -15.813   8.190  26.109  0.00  0.00    +0.000 C 
ATOM      6  C   UNL     1     -13.807   6.622  26.322  0.00  0.00    +0.000 A 
ATOM      7  C   UNL     1     -13.055   7.315  25.346  0.00  0.00    +0.000 A 
ATOM      8  C   UNL     1     -11.771   6.906  24.983  0.00  0.00    +0.000 A 
ATOM      9  C   UNL     1     -11.206   5.785  25.578  0.00  0.00    +0.000 A 
ATOM     10  C   UNL     1     -11.923   5.079  26.542  0.00  0.00    +0.000 A 
ATOM     11  C   UNL     1     -13.213   5.486  26.928  0.00  0.00    +0.000 A 
ATOM     12  C   UNL     1     -13.910   4.778  27.920  0.00  0.00    +0.000 A 
ENDROOT
TORSDOF 0
ENDMDL
MODEL 7
REMARK VINA RESULT:    -5.156      0.770      3.837
REMARK INTER + INTRA:          -5.156
REMARK INTER:                  -5.156
REMARK INTRA:                   0.000
REMARK UNBOUND:                 0.000
REMARK  Name = C:\Users\sofiya chavarekar\OneDrive\Assignment- Module 1\PROJECT(AI-based drug target identification for SDH-related rare disorders)\Data\Ligands\PDB\Ligand_0015.pdb
REMARK  2 active torsions:
REMARK  status: ('A' for Active; 'I' for Inactive)
REMARK    1  A    between atoms: C_1  and  C_2
REMARK    2  A    between atoms: C_4  and  C_5
REMARK                            x       y       z     vdW  Elec       q    Type
REMARK                         _______ _______ _______ _____ _____    ______ ____
ROOT
ATOM      1  C   UNL     1     -15.347  10.626  25.868  0.00  0.00    +0.000 C 
ATOM      2  C   UNL     1     -15.166   9.173  26.196  0.00  0.00    +0.000 A 
ATOM      3  C   UNL     1     -16.259   8.411  26.618  0.00  0.00    +0.000 A 
ATOM      4  C   UNL     1     -16.125   7.040  26.894  0.00  0.00    +0.000 A 
ATOM      5  C   UNL     1     -17.342   6.281  27.356  0.00  0.00    +0.000 C 
ATOM      6  C   UNL     1     -14.866   6.406  26.736  0.00  0.00    +0.000 A 
ATOM      7  C   UNL     1     -14.653   5.028  26.965  0.00  0.00    +0.000 A 
ATOM      8  C   UNL     1     -13.398   4.440  26.789  0.00  0.00    +0.000 A 
ATOM      9  C   UNL     1     -12.319   5.218  26.391  0.00  0.00    +0.000 A 
ATOM     10  C   UNL     1     -12.496   6.581  26.161  0.00  0.00    +0.000 A 
ATOM     11  C   UNL     1     -13.757   7.185  26.321  0.00  0.00    +0.000 A 
ATOM     12  C   UNL     1     -13.922   8.554  26.059  0.00  0.00    +0.000 A 
ENDROOT
TORSDOF 0
ENDMDL
MODEL 8
REMARK VINA RESULT:    -5.021      1.284      3.442
REMARK INTER + INTRA:          -5.021
REMARK INTER:                  -5.021
REMARK INTRA:                   0.000
REMARK UNBOUND:                 0.000
REMARK  Name = C:\Users\sofiya chavarekar\OneDrive\Assignment- Module 1\PROJECT(AI-based drug target identification for SDH-related rare disorders)\Data\Ligands\PDB\Ligand_0015.pdb
REMARK  2 active torsions:
REMARK  status: ('A' for Active; 'I' for Inactive)
REMARK    1  A    between atoms: C_1  and  C_2
REMARK    2  A    between atoms: C_4  and  C_5
REMARK                            x       y       z     vdW  Elec       q    Type
REMARK                         _______ _______ _______ _____ _____    ______ ____
ROOT
ATOM      1  C   UNL     1     -14.274   1.697  28.443  0.00  0.00    +0.000 C 
ATOM      2  C   UNL     1     -14.285   3.054  27.803  0.00  0.00    +0.000 A 
ATOM      3  C   UNL     1     -15.458   3.812  27.792  0.00  0.00    +0.000 A 
ATOM      4  C   UNL     1     -15.486   5.102  27.234  0.00  0.00    +0.000 A 
ATOM      5  C   UNL     1     -16.787   5.860  27.247  0.00  0.00    +0.000 C 
ATOM      6  C   UNL     1     -14.304   5.656  26.677  0.00  0.00    +0.000 A 
ATOM      7  C   UNL     1     -14.239   6.954  26.122  0.00  0.00    +0.000 A 
ATOM      8  C   UNL     1     -13.053   7.466  25.592  0.00  0.00    +0.000 A 
ATOM      9  C   UNL     1     -11.903   6.689  25.590  0.00  0.00    +0.000 A 
ATOM     10  C   UNL     1     -11.936   5.404  26.127  0.00  0.00    +0.000 A 
ATOM     11  C   UNL     1     -13.119   4.878  26.678  0.00  0.00    +0.000 A 
ATOM     12  C   UNL     1     -13.127   3.592  27.238  0.00  0.00    +0.000 A 
ENDROOT
TORSDOF 0
ENDMDL
MODEL 9
REMARK VINA RESULT:    -4.995      0.925      4.655
REMARK INTER + INTRA:          -4.995
REMARK INTER:                  -4.995
REMARK INTRA:                   0.000
REMARK UNBOUND:                 0.000
REMARK  Name = C:\Users\sofiya chavarekar\OneDrive\Assignment- Module 1\PROJECT(AI-based drug target identification for SDH-related rare disorders)\Data\Ligands\PDB\Ligand_0015.pdb
REMARK  2 active torsions:
REMARK  status: ('A' for Active; 'I' for Inactive)
REMARK    1  A    between atoms: C_1  and  C_2
REMARK    2  A    between atoms: C_4  and  C_5
REMARK                            x       y       z     vdW  Elec       q    Type
REMARK                         _______ _______ _______ _____ _____    ______ ____
ROOT
ATOM      1  C   UNL     1     -18.534   6.790  27.680  0.00  0.00    +0.000 C 
ATOM      2  C   UNL     1     -17.116   6.937  27.214  0.00  0.00    +0.000 A 
ATOM      3  C   UNL     1     -16.639   8.187  26.812  0.00  0.00    +0.000 A 
ATOM      4  C   UNL     1     -15.305   8.361  26.408  0.00  0.00    +0.000 A 
ATOM      5  C   UNL     1     -14.860   9.734  25.977  0.00  0.00    +0.000 C 
ATOM      6  C   UNL     1     -14.415   7.255  26.412  0.00  0.00    +0.000 A 
ATOM      7  C   UNL     1     -13.053   7.350  26.049  0.00  0.00    +0.000 A 
ATOM      8  C   UNL     1     -12.208   6.238  26.076  0.00  0.00    +0.000 A 
ATOM      9  C   UNL     1     -12.706   4.999  26.456  0.00  0.00    +0.000 A 
ATOM     10  C   UNL     1     -14.045   4.873  26.817  0.00  0.00    +0.000 A 
ATOM     11  C   UNL     1     -14.906   5.985  26.808  0.00  0.00    +0.000 A 
ATOM     12  C   UNL     1     -16.246   5.845  27.200  0.00  0.00    +0.000 A 
ENDROOT
TORSDOF 0
ENDMDL
