MODEL 1
REMARK VINA RESULT:    -3.164      0.000      0.000
REMARK INTER + INTRA:          -3.547
REMARK INTER:                  -3.533
REMARK INTRA:                  -0.013
REMARK UNBOUND:                -0.013
REMARK  Name = C:\Users\sofiya chavarekar\OneDrive\Assignment- Module 1\PROJECT(AI-based drug target identification for SDH-related rare disorders)\Data\Ligands\PDB\Ligand_0073.pdb
REMARK  3 active torsions:
REMARK  status: ('A' for Active; 'I' for Inactive)
REMARK    1  A    between atoms: C_1  and  C_2
REMARK    2  A    between atoms: C_2  and  C_3
REMARK    3  A    between atoms: C_3  and  C_4
REMARK                            x       y       z     vdW  Elec       q    Type
REMARK                         _______ _______ _______ _____ _____    ______ ____
ROOT
ATOM      1  C   UNL     1     -10.806   5.248  26.096  0.00  0.00    +0.000 C 
ENDROOT
BRANCH   1   3
ATOM      2  C   UNL     1     -12.659   6.773  25.318  0.00  0.00    +0.000 C 
ATOM      3  C   UNL     1     -11.170   6.480  25.275  0.00  0.00    +0.000 C 
ENDBRANCH   1   3
BRANCH   1   4
ATOM      4  C   UNL     1      -9.711   4.433  25.449  0.00  0.00    +0.000 C 
ATOM      5  O   UNL     1      -9.354   4.544  24.282  0.00  0.00    +0.000 OA
ENDBRANCH   1   4
TORSDOF 2
ENDMDL
MODEL 2
REMARK VINA RESULT:    -3.083      2.100      3.197
REMARK INTER + INTRA:          -3.457
REMARK INTER:                  -3.448
REMARK INTRA:                  -0.009
REMARK UNBOUND:                -0.013
REMARK  Name = C:\Users\sofiya chavarekar\OneDrive\Assignment- Module 1\PROJECT(AI-based drug target identification for SDH-related rare disorders)\Data\Ligands\PDB\Ligand_0073.pdb
REMARK  3 active torsions:
REMARK  status: ('A' for Active; 'I' for Inactive)
REMARK    1  A    between atoms: C_1  and  C_2
REMARK    2  A    between atoms: C_2  and  C_3
REMARK    3  A    between atoms: C_3  and  C_4
REMARK                            x       y       z     vdW  Elec       q    Type
REMARK                         _______ _______ _______ _____ _____    ______ ____
ROOT
ATOM      1  C   UNL     1     -12.062   5.695  26.328  0.00  0.00    +0.000 C 
ENDROOT
BRANCH   1   3
ATOM      2  C   UNL     1      -9.909   4.450  25.902  0.00  0.00    +0.000 C 
ATOM      3  C   UNL     1     -10.710   5.710  25.623  0.00  0.00    +0.000 C 
ENDBRANCH   1   3
BRANCH   1   4
ATOM      4  C   UNL     1     -13.094   6.524  25.599  0.00  0.00    +0.000 C 
ATOM      5  O   UNL     1     -12.905   7.096  24.532  0.00  0.00    +0.000 OA
ENDBRANCH   1   4
TORSDOF 2
ENDMDL
MODEL 3
REMARK VINA RESULT:    -2.931      3.104      4.161
REMARK INTER + INTRA:          -3.287
REMARK INTER:                  -3.282
REMARK INTRA:                  -0.005
REMARK UNBOUND:                -0.013
REMARK  Name = C:\Users\sofiya chavarekar\OneDrive\Assignment- Module 1\PROJECT(AI-based drug target identification for SDH-related rare disorders)\Data\Ligands\PDB\Ligand_0073.pdb
REMARK  3 active torsions:
REMARK  status: ('A' for Active; 'I' for Inactive)
REMARK    1  A    between atoms: C_1  and  C_2
REMARK    2  A    between atoms: C_2  and  C_3
REMARK    3  A    between atoms: C_3  and  C_4
REMARK                            x       y       z     vdW  Elec       q    Type
REMARK                         _______ _______ _______ _____ _____    ______ ____
ROOT
ATOM      1  C   UNL     1     -12.911   6.734  25.429  0.00  0.00    +0.000 C 
ENDROOT
BRANCH   1   3
ATOM      2  C   UNL     1     -10.826   5.400  25.915  0.00  0.00    +0.000 C 
ATOM      3  C   UNL     1     -12.122   5.958  26.477  0.00  0.00    +0.000 C 
ENDBRANCH   1   3
BRANCH   1   4
ATOM      4  C   UNL     1     -13.818   7.771  26.050  0.00  0.00    +0.000 C 
ATOM      5  O   UNL     1     -14.334   7.676  27.158  0.00  0.00    +0.000 OA
ENDBRANCH   1   4
TORSDOF 2
ENDMDL
MODEL 4
REMARK VINA RESULT:    -2.574      2.802      3.410
REMARK INTER + INTRA:          -2.888
REMARK INTER:                  -2.856
REMARK INTRA:                  -0.031
REMARK UNBOUND:                -0.013
REMARK  Name = C:\Users\sofiya chavarekar\OneDrive\Assignment- Module 1\PROJECT(AI-based drug target identification for SDH-related rare disorders)\Data\Ligands\PDB\Ligand_0073.pdb
REMARK  3 active torsions:
REMARK  status: ('A' for Active; 'I' for Inactive)
REMARK    1  A    between atoms: C_1  and  C_2
REMARK    2  A    between atoms: C_2  and  C_3
REMARK    3  A    between atoms: C_3  and  C_4
REMARK                            x       y       z     vdW  Elec       q    Type
REMARK                         _______ _______ _______ _____ _____    ______ ____
ROOT
ATOM      1  C   UNL     1     -12.893   5.851  26.972  0.00  0.00    +0.000 C 
ENDROOT
BRANCH   1   3
ATOM      2  C   UNL     1     -10.720   5.452  25.754  0.00  0.00    +0.000 C 
ATOM      3  C   UNL     1     -11.948   6.337  25.880  0.00  0.00    +0.000 C 
ENDBRANCH   1   3
BRANCH   1   4
ATOM      4  C   UNL     1     -13.836   4.780  26.476  0.00  0.00    +0.000 C 
ATOM      5  O   UNL     1     -13.848   3.620  26.872  0.00  0.00    +0.000 OA
ENDBRANCH   1   4
TORSDOF 2
ENDMDL
MODEL 5
REMARK VINA RESULT:    -2.557      1.586      2.118
REMARK INTER + INTRA:          -2.869
REMARK INTER:                  -2.835
REMARK INTRA:                  -0.034
REMARK UNBOUND:                -0.013
REMARK  Name = C:\Users\sofiya chavarekar\OneDrive\Assignment- Module 1\PROJECT(AI-based drug target identification for SDH-related rare disorders)\Data\Ligands\PDB\Ligand_0073.pdb
REMARK  3 active torsions:
REMARK  status: ('A' for Active; 'I' for Inactive)
REMARK    1  A    between atoms: C_1  and  C_2
REMARK    2  A    between atoms: C_2  and  C_3
REMARK    3  A    between atoms: C_3  and  C_4
REMARK                            x       y       z     vdW  Elec       q    Type
REMARK                         _______ _______ _______ _____ _____    ______ ____
ROOT
ATOM      1  C   UNL     1     -12.593   5.789  26.549  0.00  0.00    +0.000 C 
ENDROOT
BRANCH   1   3
ATOM      2  C   UNL     1     -13.945   7.873  26.104  0.00  0.00    +0.000 C 
ATOM      3  C   UNL     1     -13.524   6.510  25.581  0.00  0.00    +0.000 C 
ENDBRANCH   1   3
BRANCH   1   4
ATOM      4  C   UNL     1     -11.162   5.780  26.064  0.00  0.00    +0.000 C 
ATOM      5  O   UNL     1     -10.789   6.208  24.978  0.00  0.00    +0.000 OA
ENDBRANCH   1   4
TORSDOF 2
ENDMDL
MODEL 6
REMARK VINA RESULT:    -2.504      1.918      2.292
REMARK INTER + INTRA:          -2.809
REMARK INTER:                  -2.782
REMARK INTRA:                  -0.028
REMARK UNBOUND:                -0.013
REMARK  Name = C:\Users\sofiya chavarekar\OneDrive\Assignment- Module 1\PROJECT(AI-based drug target identification for SDH-related rare disorders)\Data\Ligands\PDB\Ligand_0073.pdb
REMARK  3 active torsions:
REMARK  status: ('A' for Active; 'I' for Inactive)
REMARK    1  A    between atoms: C_1  and  C_2
REMARK    2  A    between atoms: C_2  and  C_3
REMARK    3  A    between atoms: C_3  and  C_4
REMARK                            x       y       z     vdW  Elec       q    Type
REMARK                         _______ _______ _______ _____ _____    ______ ____
ROOT
ATOM      1  C   UNL     1     -12.257   5.991  25.874  0.00  0.00    +0.000 C 
ENDROOT
BRANCH   1   3
ATOM      2  C   UNL     1     -13.720   4.199  26.882  0.00  0.00    +0.000 C 
ATOM      3  C   UNL     1     -13.143   5.594  27.049  0.00  0.00    +0.000 C 
ENDBRANCH   1   3
BRANCH   1   4
ATOM      4  C   UNL     1     -10.799   5.687  26.131  0.00  0.00    +0.000 C 
ATOM      5  O   UNL     1     -10.149   4.832  25.541  0.00  0.00    +0.000 OA
ENDBRANCH   1   4
TORSDOF 2
ENDMDL
MODEL 7
REMARK VINA RESULT:    -2.321      3.054      3.803
REMARK INTER + INTRA:          -2.606
REMARK INTER:                  -2.603
REMARK INTRA:                  -0.002
REMARK UNBOUND:                -0.013
REMARK  Name = C:\Users\sofiya chavarekar\OneDrive\Assignment- Module 1\PROJECT(AI-based drug target identification for SDH-related rare disorders)\Data\Ligands\PDB\Ligand_0073.pdb
REMARK  3 active torsions:
REMARK  status: ('A' for Active; 'I' for Inactive)
REMARK    1  A    between atoms: C_1  and  C_2
REMARK    2  A    between atoms: C_2  and  C_3
REMARK    3  A    between atoms: C_3  and  C_4
REMARK                            x       y       z     vdW  Elec       q    Type
REMARK                         _______ _______ _______ _____ _____    ______ ____
ROOT
ATOM      1  C   UNL     1     -13.944   5.655  26.145  0.00  0.00    +0.000 C 
ENDROOT
BRANCH   1   3
ATOM      2  C   UNL     1     -14.347   3.388  27.176  0.00  0.00    +0.000 C 
ATOM      3  C   UNL     1     -13.312   4.437  26.810  0.00  0.00    +0.000 C 
ENDBRANCH   1   3
BRANCH   1   4
ATOM      4  C   UNL     1     -12.909   6.654  25.681  0.00  0.00    +0.000 C 
ATOM      5  O   UNL     1     -12.794   7.058  24.530  0.00  0.00    +0.000 OA
ENDBRANCH   1   4
TORSDOF 2
ENDMDL
MODEL 8
REMARK VINA RESULT:    -2.227     14.282     14.637
REMARK INTER + INTRA:          -2.500
REMARK INTER:                  -2.498
REMARK INTRA:                  -0.002
REMARK UNBOUND:                -0.013
REMARK  Name = C:\Users\sofiya chavarekar\OneDrive\Assignment- Module 1\PROJECT(AI-based drug target identification for SDH-related rare disorders)\Data\Ligands\PDB\Ligand_0073.pdb
REMARK  3 active torsions:
REMARK  status: ('A' for Active; 'I' for Inactive)
REMARK    1  A    between atoms: C_1  and  C_2
REMARK    2  A    between atoms: C_2  and  C_3
REMARK    3  A    between atoms: C_3  and  C_4
REMARK                            x       y       z     vdW  Elec       q    Type
REMARK                         _______ _______ _______ _____ _____    ______ ____
ROOT
ATOM      1  C   UNL     1     -20.108  -3.468  20.555  0.00  0.00    +0.000 C 
ENDROOT
BRANCH   1   3
ATOM      2  C   UNL     1     -19.979  -5.896  21.227  0.00  0.00    +0.000 C 
ATOM      3  C   UNL     1     -20.784  -4.610  21.304  0.00  0.00    +0.000 C 
ENDBRANCH   1   3
BRANCH   1   4
ATOM      4  C   UNL     1     -21.073  -2.714  19.671  0.00  0.00    +0.000 C 
ATOM      5  O   UNL     1     -20.746  -1.955  18.765  0.00  0.00    +0.000 OA
ENDBRANCH   1   4
TORSDOF 2
ENDMDL
MODEL 9
REMARK VINA RESULT:    -2.165      4.170      5.140
REMARK INTER + INTRA:          -2.431
REMARK INTER:                  -2.410
REMARK INTRA:                  -0.021
REMARK UNBOUND:                -0.013
REMARK  Name = C:\Users\sofiya chavarekar\OneDrive\Assignment- Module 1\PROJECT(AI-based drug target identification for SDH-related rare disorders)\Data\Ligands\PDB\Ligand_0073.pdb
REMARK  3 active torsions:
REMARK  status: ('A' for Active; 'I' for Inactive)
REMARK    1  A    between atoms: C_1  and  C_2
REMARK    2  A    between atoms: C_2  and  C_3
REMARK    3  A    between atoms: C_3  and  C_4
REMARK                            x       y       z     vdW  Elec       q    Type
REMARK                         _______ _______ _______ _____ _____    ______ ____
ROOT
ATOM      1  C   UNL     1     -15.073   6.597  26.698  0.00  0.00    +0.000 C 
ENDROOT
BRANCH   1   3
ATOM      2  C   UNL     1     -13.025   6.828  25.243  0.00  0.00    +0.000 C 
ATOM      3  C   UNL     1     -13.617   6.197  26.491  0.00  0.00    +0.000 C 
ENDBRANCH   1   3
BRANCH   1   4
ATOM      4  C   UNL     1     -15.272   8.093  26.612  0.00  0.00    +0.000 C 
ATOM      5  O   UNL     1     -14.795   8.907  27.396  0.00  0.00    +0.000 OA
ENDBRANCH   1   4
TORSDOF 2
ENDMDL
