MODEL 1
REMARK VINA RESULT:    -3.836      0.000      0.000
REMARK INTER + INTRA:          -3.836
REMARK INTER:                  -3.836
REMARK INTRA:                   0.000
REMARK UNBOUND:                 0.000
REMARK  Name = C:\Users\sofiya chavarekar\OneDrive\Assignment- Module 1\PROJECT(AI-based drug target identification for SDH-related rare disorders)\Data\Ligands\PDB\Ligand_0006.pdb
REMARK  0 active torsions:
REMARK  status: ('A' for Active; 'I' for Inactive)
REMARK                            x       y       z     vdW  Elec       q    Type
REMARK                         _______ _______ _______ _____ _____    ______ ____
ROOT
ATOM      1  C   UNL     1     -11.057   5.577  26.085  0.00  0.00    +0.000 C 
ATOM      2  C   UNL     1     -11.378   6.690  25.410  0.00  0.00    +0.000 C 
ATOM      3  C   UNL     1     -12.696   7.070  24.958  0.00  0.00    +0.000 C 
ATOM      4  C   UNL     1     -13.846   6.800  25.596  0.00  0.00    +0.000 C 
ATOM      5  C   UNL     1     -13.994   6.003  26.861  0.00  0.00    +0.000 C 
ATOM      6  C   UNL     1     -13.237   4.705  26.867  0.00  0.00    +0.000 C 
ATOM      7  C   UNL     1     -11.959   4.529  26.500  0.00  0.00    +0.000 C 
ENDROOT
TORSDOF 0
ENDMDL
MODEL 2
REMARK VINA RESULT:    -3.797      0.232      2.281
REMARK INTER + INTRA:          -3.797
REMARK INTER:                  -3.797
REMARK INTRA:                   0.000
REMARK UNBOUND:                 0.000
REMARK  Name = C:\Users\sofiya chavarekar\OneDrive\Assignment- Module 1\PROJECT(AI-based drug target identification for SDH-related rare disorders)\Data\Ligands\PDB\Ligand_0006.pdb
REMARK  0 active torsions:
REMARK  status: ('A' for Active; 'I' for Inactive)
REMARK                            x       y       z     vdW  Elec       q    Type
REMARK                         _______ _______ _______ _____ _____    ______ ____
ROOT
ATOM      1  C   UNL     1     -12.073   4.555  26.527  0.00  0.00    +0.000 C 
ATOM      2  C   UNL     1     -13.343   4.767  26.899  0.00  0.00    +0.000 C 
ATOM      3  C   UNL     1     -14.026   6.039  26.938  0.00  0.00    +0.000 C 
ATOM      4  C   UNL     1     -13.819   7.060  26.092  0.00  0.00    +0.000 C 
ATOM      5  C   UNL     1     -12.803   7.105  24.986  0.00  0.00    +0.000 C 
ATOM      6  C   UNL     1     -11.427   6.656  25.391  0.00  0.00    +0.000 C 
ATOM      7  C   UNL     1     -11.125   5.551  26.088  0.00  0.00    +0.000 C 
ENDROOT
TORSDOF 0
ENDMDL
MODEL 3
REMARK VINA RESULT:    -3.782      0.332      2.289
REMARK INTER + INTRA:          -3.782
REMARK INTER:                  -3.782
REMARK INTRA:                   0.000
REMARK UNBOUND:                 0.000
REMARK  Name = C:\Users\sofiya chavarekar\OneDrive\Assignment- Module 1\PROJECT(AI-based drug target identification for SDH-related rare disorders)\Data\Ligands\PDB\Ligand_0006.pdb
REMARK  0 active torsions:
REMARK  status: ('A' for Active; 'I' for Inactive)
REMARK                            x       y       z     vdW  Elec       q    Type
REMARK                         _______ _______ _______ _____ _____    ______ ____
ROOT
ATOM      1  C   UNL     1     -13.898   6.958  25.612  0.00  0.00    +0.000 C 
ATOM      2  C   UNL     1     -12.717   7.122  25.000  0.00  0.00    +0.000 C 
ATOM      3  C   UNL     1     -11.435   6.645  25.464  0.00  0.00    +0.000 C 
ATOM      4  C   UNL     1     -11.228   5.509  26.148  0.00  0.00    +0.000 C 
ATOM      5  C   UNL     1     -12.285   4.550  26.617  0.00  0.00    +0.000 C 
ATOM      6  C   UNL     1     -13.455   5.202  27.299  0.00  0.00    +0.000 C 
ATOM      7  C   UNL     1     -14.134   6.272  26.860  0.00  0.00    +0.000 C 
ENDROOT
TORSDOF 0
ENDMDL
MODEL 4
REMARK VINA RESULT:    -3.702      0.400      3.049
REMARK INTER + INTRA:          -3.702
REMARK INTER:                  -3.702
REMARK INTRA:                   0.000
REMARK UNBOUND:                 0.000
REMARK  Name = C:\Users\sofiya chavarekar\OneDrive\Assignment- Module 1\PROJECT(AI-based drug target identification for SDH-related rare disorders)\Data\Ligands\PDB\Ligand_0006.pdb
REMARK  0 active torsions:
REMARK  status: ('A' for Active; 'I' for Inactive)
REMARK                            x       y       z     vdW  Elec       q    Type
REMARK                         _______ _______ _______ _____ _____    ______ ____
ROOT
ATOM      1  C   UNL     1     -13.706   7.347  26.014  0.00  0.00    +0.000 C 
ATOM      2  C   UNL     1     -14.052   6.343  26.832  0.00  0.00    +0.000 C 
ATOM      3  C   UNL     1     -13.479   5.018  26.856  0.00  0.00    +0.000 C 
ATOM      4  C   UNL     1     -12.198   4.719  26.589  0.00  0.00    +0.000 C 
ATOM      5  C   UNL     1     -11.132   5.685  26.156  0.00  0.00    +0.000 C 
ATOM      6  C   UNL     1     -11.549   6.612  25.050  0.00  0.00    +0.000 C 
ATOM      7  C   UNL     1     -12.691   7.313  24.989  0.00  0.00    +0.000 C 
ENDROOT
TORSDOF 0
ENDMDL
MODEL 5
REMARK VINA RESULT:    -3.682      0.944      2.466
REMARK INTER + INTRA:          -3.682
REMARK INTER:                  -3.682
REMARK INTRA:                   0.000
REMARK UNBOUND:                 0.000
REMARK  Name = C:\Users\sofiya chavarekar\OneDrive\Assignment- Module 1\PROJECT(AI-based drug target identification for SDH-related rare disorders)\Data\Ligands\PDB\Ligand_0006.pdb
REMARK  0 active torsions:
REMARK  status: ('A' for Active; 'I' for Inactive)
REMARK                            x       y       z     vdW  Elec       q    Type
REMARK                         _______ _______ _______ _____ _____    ______ ____
ROOT
ATOM      1  C   UNL     1     -13.285   7.386  25.394  0.00  0.00    +0.000 C 
ATOM      2  C   UNL     1     -12.200   6.605  25.485  0.00  0.00    +0.000 C 
ATOM      3  C   UNL     1     -12.033   5.463  26.353  0.00  0.00    +0.000 C 
ATOM      4  C   UNL     1     -13.006   4.615  26.721  0.00  0.00    +0.000 C 
ATOM      5  C   UNL     1     -14.460   4.720  26.356  0.00  0.00    +0.000 C 
ATOM      6  C   UNL     1     -15.049   6.089  26.548  0.00  0.00    +0.000 C 
ATOM      7  C   UNL     1     -14.511   7.250  26.145  0.00  0.00    +0.000 C 
ENDROOT
TORSDOF 0
ENDMDL
MODEL 6
REMARK VINA RESULT:    -3.675      0.850      2.438
REMARK INTER + INTRA:          -3.675
REMARK INTER:                  -3.675
REMARK INTRA:                   0.000
REMARK UNBOUND:                 0.000
REMARK  Name = C:\Users\sofiya chavarekar\OneDrive\Assignment- Module 1\PROJECT(AI-based drug target identification for SDH-related rare disorders)\Data\Ligands\PDB\Ligand_0006.pdb
REMARK  0 active torsions:
REMARK  status: ('A' for Active; 'I' for Inactive)
REMARK                            x       y       z     vdW  Elec       q    Type
REMARK                         _______ _______ _______ _____ _____    ______ ____
ROOT
ATOM      1  C   UNL     1     -13.792   4.609  26.569  0.00  0.00    +0.000 C 
ATOM      2  C   UNL     1     -14.833   5.454  26.537  0.00  0.00    +0.000 C 
ATOM      3  C   UNL     1     -14.767   6.895  26.476  0.00  0.00    +0.000 C 
ATOM      4  C   UNL     1     -13.823   7.605  25.838  0.00  0.00    +0.000 C 
ATOM      5  C   UNL     1     -12.626   7.048  25.122  0.00  0.00    +0.000 C 
ATOM      6  C   UNL     1     -11.866   6.011  25.899  0.00  0.00    +0.000 C 
ATOM      7  C   UNL     1     -12.393   4.963  26.550  0.00  0.00    +0.000 C 
ENDROOT
TORSDOF 0
ENDMDL
MODEL 7
REMARK VINA RESULT:    -3.263      1.050      3.258
REMARK INTER + INTRA:          -3.263
REMARK INTER:                  -3.263
REMARK INTRA:                   0.000
REMARK UNBOUND:                 0.000
REMARK  Name = C:\Users\sofiya chavarekar\OneDrive\Assignment- Module 1\PROJECT(AI-based drug target identification for SDH-related rare disorders)\Data\Ligands\PDB\Ligand_0006.pdb
REMARK  0 active torsions:
REMARK  status: ('A' for Active; 'I' for Inactive)
REMARK                            x       y       z     vdW  Elec       q    Type
REMARK                         _______ _______ _______ _____ _____    ______ ____
ROOT
ATOM      1  C   UNL     1     -14.917   6.012  27.571  0.00  0.00    +0.000 C 
ATOM      2  C   UNL     1     -14.041   5.011  27.736  0.00  0.00    +0.000 C 
ATOM      3  C   UNL     1     -12.963   4.657  26.843  0.00  0.00    +0.000 C 
ATOM      4  C   UNL     1     -12.249   5.520  26.104  0.00  0.00    +0.000 C 
ATOM      5  C   UNL     1     -12.468   7.004  26.013  0.00  0.00    +0.000 C 
ATOM      6  C   UNL     1     -13.900   7.406  25.797  0.00  0.00    +0.000 C 
ATOM      7  C   UNL     1     -14.965   6.943  26.470  0.00  0.00    +0.000 C 
ENDROOT
TORSDOF 0
ENDMDL
MODEL 8
REMARK VINA RESULT:    -3.135      1.465      2.942
REMARK INTER + INTRA:          -3.135
REMARK INTER:                  -3.135
REMARK INTRA:                   0.000
REMARK UNBOUND:                 0.000
REMARK  Name = C:\Users\sofiya chavarekar\OneDrive\Assignment- Module 1\PROJECT(AI-based drug target identification for SDH-related rare disorders)\Data\Ligands\PDB\Ligand_0006.pdb
REMARK  0 active torsions:
REMARK  status: ('A' for Active; 'I' for Inactive)
REMARK                            x       y       z     vdW  Elec       q    Type
REMARK                         _______ _______ _______ _____ _____    ______ ____
ROOT
ATOM      1  C   UNL     1     -15.272   7.644  26.689  0.00  0.00    +0.000 C 
ATOM      2  C   UNL     1     -14.065   7.866  26.150  0.00  0.00    +0.000 C 
ATOM      3  C   UNL     1     -12.913   7.000  26.236  0.00  0.00    +0.000 C 
ATOM      4  C   UNL     1     -12.948   5.659  26.273  0.00  0.00    +0.000 C 
ATOM      5  C   UNL     1     -14.184   4.803  26.295  0.00  0.00    +0.000 C 
ATOM      6  C   UNL     1     -15.223   5.243  27.287  0.00  0.00    +0.000 C 
ATOM      7  C   UNL     1     -15.671   6.495  27.466  0.00  0.00    +0.000 C 
ENDROOT
TORSDOF 0
ENDMDL
MODEL 9
REMARK VINA RESULT:    -3.088     11.338     12.401
REMARK INTER + INTRA:          -3.088
REMARK INTER:                  -3.088
REMARK INTRA:                   0.000
REMARK UNBOUND:                 0.000
REMARK  Name = C:\Users\sofiya chavarekar\OneDrive\Assignment- Module 1\PROJECT(AI-based drug target identification for SDH-related rare disorders)\Data\Ligands\PDB\Ligand_0006.pdb
REMARK  0 active torsions:
REMARK  status: ('A' for Active; 'I' for Inactive)
REMARK                            x       y       z     vdW  Elec       q    Type
REMARK                         _______ _______ _______ _____ _____    ______ ____
ROOT
ATOM      1  C   UNL     1     -18.415  -2.321  22.662  0.00  0.00    +0.000 C 
ATOM      2  C   UNL     1     -18.422  -3.629  22.957  0.00  0.00    +0.000 C 
ATOM      3  C   UNL     1     -19.452  -4.581  22.613  0.00  0.00    +0.000 C 
ATOM      4  C   UNL     1     -20.198  -4.552  21.498  0.00  0.00    +0.000 C 
ATOM      5  C   UNL     1     -20.155  -3.499  20.427  0.00  0.00    +0.000 C 
ATOM      6  C   UNL     1     -20.181  -2.088  20.944  0.00  0.00    +0.000 C 
ATOM      7  C   UNL     1     -19.432  -1.594  21.941  0.00  0.00    +0.000 C 
ENDROOT
TORSDOF 0
ENDMDL
