MODEL 1
REMARK VINA RESULT:    -1.992      0.000      0.000
REMARK INTER + INTRA:          -1.992
REMARK INTER:                  -1.992
REMARK INTRA:                   0.000
REMARK UNBOUND:                 0.000
REMARK  Name = C:\Users\sofiya chavarekar\OneDrive\Assignment- Module 1\PROJECT(AI-based drug target identification for SDH-related rare disorders)\Data\Ligands\PDB\Ligand_0023.pdb
REMARK  0 active torsions:
REMARK  status: ('A' for Active; 'I' for Inactive)
REMARK                            x       y       z     vdW  Elec       q    Type
REMARK                         _______ _______ _______ _____ _____    ______ ____
ROOT
ATOM      1 BR   UNL     1      -9.922   4.510  25.813  0.00  0.00    +0.000 Br
ATOM      2  C   UNL     1     -11.095   6.026  25.561  0.00  0.00    +0.000 C 
ATOM      3 BR   UNL     1     -12.694   5.950  26.645  0.00  0.00    +0.000 Br
ENDROOT
TORSDOF 0
ENDMDL
MODEL 2
REMARK VINA RESULT:    -1.982      1.126      1.126
REMARK INTER + INTRA:          -1.982
REMARK INTER:                  -1.982
REMARK INTRA:                   0.000
REMARK UNBOUND:                 0.000
REMARK  Name = C:\Users\sofiya chavarekar\OneDrive\Assignment- Module 1\PROJECT(AI-based drug target identification for SDH-related rare disorders)\Data\Ligands\PDB\Ligand_0023.pdb
REMARK  0 active torsions:
REMARK  status: ('A' for Active; 'I' for Inactive)
REMARK                            x       y       z     vdW  Elec       q    Type
REMARK                         _______ _______ _______ _____ _____    ______ ____
ROOT
ATOM      1 BR   UNL     1     -10.598   5.107  25.908  0.00  0.00    +0.000 Br
ATOM      2  C   UNL     1     -11.543   6.688  25.320  0.00  0.00    +0.000 C 
ATOM      3 BR   UNL     1     -13.464   6.542  25.486  0.00  0.00    +0.000 Br
ENDROOT
TORSDOF 0
ENDMDL
MODEL 3
REMARK VINA RESULT:    -1.924      0.324      2.651
REMARK INTER + INTRA:          -1.924
REMARK INTER:                  -1.924
REMARK INTRA:                   0.000
REMARK UNBOUND:                 0.000
REMARK  Name = C:\Users\sofiya chavarekar\OneDrive\Assignment- Module 1\PROJECT(AI-based drug target identification for SDH-related rare disorders)\Data\Ligands\PDB\Ligand_0023.pdb
REMARK  0 active torsions:
REMARK  status: ('A' for Active; 'I' for Inactive)
REMARK                            x       y       z     vdW  Elec       q    Type
REMARK                         _______ _______ _______ _____ _____    ______ ____
ROOT
ATOM      1 BR   UNL     1     -12.771   6.303  26.351  0.00  0.00    +0.000 Br
ATOM      2  C   UNL     1     -11.089   6.223  25.401  0.00  0.00    +0.000 C 
ATOM      3 BR   UNL     1     -10.057   4.636  25.797  0.00  0.00    +0.000 Br
ENDROOT
TORSDOF 0
ENDMDL
MODEL 4
REMARK VINA RESULT:    -1.740      2.099      2.840
REMARK INTER + INTRA:          -1.740
REMARK INTER:                  -1.740
REMARK INTRA:                   0.000
REMARK UNBOUND:                 0.000
REMARK  Name = C:\Users\sofiya chavarekar\OneDrive\Assignment- Module 1\PROJECT(AI-based drug target identification for SDH-related rare disorders)\Data\Ligands\PDB\Ligand_0023.pdb
REMARK  0 active torsions:
REMARK  status: ('A' for Active; 'I' for Inactive)
REMARK                            x       y       z     vdW  Elec       q    Type
REMARK                         _______ _______ _______ _____ _____    ______ ____
ROOT
ATOM      1 BR   UNL     1     -13.702   3.891  27.170  0.00  0.00    +0.000 Br
ATOM      2  C   UNL     1     -13.169   5.609  26.461  0.00  0.00    +0.000 C 
ATOM      3 BR   UNL     1     -11.284   5.717  26.045  0.00  0.00    +0.000 Br
ENDROOT
TORSDOF 0
ENDMDL
MODEL 5
REMARK VINA RESULT:    -1.611      2.478      2.750
REMARK INTER + INTRA:          -1.611
REMARK INTER:                  -1.611
REMARK INTRA:                   0.000
REMARK UNBOUND:                 0.000
REMARK  Name = C:\Users\sofiya chavarekar\OneDrive\Assignment- Module 1\PROJECT(AI-based drug target identification for SDH-related rare disorders)\Data\Ligands\PDB\Ligand_0023.pdb
REMARK  0 active torsions:
REMARK  status: ('A' for Active; 'I' for Inactive)
REMARK                            x       y       z     vdW  Elec       q    Type
REMARK                         _______ _______ _______ _____ _____    ______ ____
ROOT
ATOM      1 BR   UNL     1     -12.227   6.430  25.777  0.00  0.00    +0.000 Br
ATOM      2  C   UNL     1     -13.506   5.833  27.098  0.00  0.00    +0.000 C 
ATOM      3 BR   UNL     1     -13.739   3.914  27.130  0.00  0.00    +0.000 Br
ENDROOT
TORSDOF 0
ENDMDL
MODEL 6
REMARK VINA RESULT:    -1.435      3.634      4.296
REMARK INTER + INTRA:          -1.435
REMARK INTER:                  -1.435
REMARK INTRA:                   0.000
REMARK UNBOUND:                 0.000
REMARK  Name = C:\Users\sofiya chavarekar\OneDrive\Assignment- Module 1\PROJECT(AI-based drug target identification for SDH-related rare disorders)\Data\Ligands\PDB\Ligand_0023.pdb
REMARK  0 active torsions:
REMARK  status: ('A' for Active; 'I' for Inactive)
REMARK                            x       y       z     vdW  Elec       q    Type
REMARK                         _______ _______ _______ _____ _____    ______ ____
ROOT
ATOM      1 BR   UNL     1     -13.760   6.308  25.663  0.00  0.00    +0.000 Br
ATOM      2  C   UNL     1     -15.194   6.881  26.826  0.00  0.00    +0.000 C 
ATOM      3 BR   UNL     1     -16.129   8.446  26.179  0.00  0.00    +0.000 Br
ENDROOT
TORSDOF 0
ENDMDL
MODEL 7
REMARK VINA RESULT:    -1.393      7.428      7.428
REMARK INTER + INTRA:          -1.393
REMARK INTER:                  -1.393
REMARK INTRA:                   0.000
REMARK UNBOUND:                 0.000
REMARK  Name = C:\Users\sofiya chavarekar\OneDrive\Assignment- Module 1\PROJECT(AI-based drug target identification for SDH-related rare disorders)\Data\Ligands\PDB\Ligand_0023.pdb
REMARK  0 active torsions:
REMARK  status: ('A' for Active; 'I' for Inactive)
REMARK                            x       y       z     vdW  Elec       q    Type
REMARK                         _______ _______ _______ _____ _____    ______ ____
ROOT
ATOM      1 BR   UNL     1     -12.923  -1.348  30.296  0.00  0.00    +0.000 Br
ATOM      2  C   UNL     1     -13.036  -0.486  28.570  0.00  0.00    +0.000 C 
ATOM      3 BR   UNL     1     -14.829  -0.442  27.849  0.00  0.00    +0.000 Br
ENDROOT
TORSDOF 0
ENDMDL
MODEL 8
REMARK VINA RESULT:    -1.291     12.689     12.843
REMARK INTER + INTRA:          -1.291
REMARK INTER:                  -1.291
REMARK INTRA:                   0.000
REMARK UNBOUND:                 0.000
REMARK  Name = C:\Users\sofiya chavarekar\OneDrive\Assignment- Module 1\PROJECT(AI-based drug target identification for SDH-related rare disorders)\Data\Ligands\PDB\Ligand_0023.pdb
REMARK  0 active torsions:
REMARK  status: ('A' for Active; 'I' for Inactive)
REMARK                            x       y       z     vdW  Elec       q    Type
REMARK                         _______ _______ _______ _____ _____    ______ ____
ROOT
ATOM      1 BR   UNL     1     -18.456  -2.575  22.993  0.00  0.00    +0.000 Br
ATOM      2  C   UNL     1     -19.448  -2.843  21.356  0.00  0.00    +0.000 C 
ATOM      3 BR   UNL     1     -20.216  -4.611  21.204  0.00  0.00    +0.000 Br
ENDROOT
TORSDOF 0
ENDMDL
MODEL 9
REMARK VINA RESULT:    -1.221     12.751     13.550
REMARK INTER + INTRA:          -1.221
REMARK INTER:                  -1.221
REMARK INTRA:                   0.000
REMARK UNBOUND:                 0.000
REMARK  Name = C:\Users\sofiya chavarekar\OneDrive\Assignment- Module 1\PROJECT(AI-based drug target identification for SDH-related rare disorders)\Data\Ligands\PDB\Ligand_0023.pdb
REMARK  0 active torsions:
REMARK  status: ('A' for Active; 'I' for Inactive)
REMARK                            x       y       z     vdW  Elec       q    Type
REMARK                         _______ _______ _______ _____ _____    ______ ____
ROOT
ATOM      1 BR   UNL     1     -22.393   9.689  23.196  0.00  0.00    +0.000 Br
ATOM      2  C   UNL     1     -23.971   8.582  23.052  0.00  0.00    +0.000 C 
ATOM      3 BR   UNL     1     -25.514   9.323  23.950  0.00  0.00    +0.000 Br
ENDROOT
TORSDOF 0
ENDMDL
