MODEL 1
REMARK VINA RESULT:    -3.293      0.000      0.000
REMARK INTER + INTRA:          -3.486
REMARK INTER:                  -3.486
REMARK INTRA:                   0.000
REMARK UNBOUND:                 0.000
REMARK  Name = C:\Users\sofiya chavarekar\OneDrive\Assignment- Module 1\PROJECT(AI-based drug target identification for SDH-related rare disorders)\Data\Ligands\PDB\Ligand_0026.pdb
REMARK  1 active torsions:
REMARK  status: ('A' for Active; 'I' for Inactive)
REMARK    1  A    between atoms: C_2  and  C_4
REMARK                            x       y       z     vdW  Elec       q    Type
REMARK                         _______ _______ _______ _____ _____    ______ ____
ROOT
ATOM      1 CL   UNL     1     -10.325   4.900  25.870  0.00  0.00    +0.000 Cl
ATOM      2  C   UNL     1     -11.221   6.436  25.621  0.00  0.00    +0.000 C 
ATOM      3 CL   UNL     1     -10.676   7.112  24.049  0.00  0.00    +0.000 Cl
ENDROOT
BRANCH   2   4
ATOM      4  C   UNL     1     -12.742   6.222  25.653  0.00  0.00    +0.000 C 
ATOM      5 CL   UNL     1     -13.201   4.842  26.708  0.00  0.00    +0.000 Cl
ATOM      6 CL   UNL     1     -13.607   7.666  26.278  0.00  0.00    +0.000 Cl
ENDBRANCH   2   4
TORSDOF 1
ENDMDL
MODEL 2
REMARK VINA RESULT:    -3.195      0.915      1.817
REMARK INTER + INTRA:          -3.381
REMARK INTER:                  -3.381
REMARK INTRA:                   0.000
REMARK UNBOUND:                 0.000
REMARK  Name = C:\Users\sofiya chavarekar\OneDrive\Assignment- Module 1\PROJECT(AI-based drug target identification for SDH-related rare disorders)\Data\Ligands\PDB\Ligand_0026.pdb
REMARK  1 active torsions:
REMARK  status: ('A' for Active; 'I' for Inactive)
REMARK    1  A    between atoms: C_2  and  C_4
REMARK                            x       y       z     vdW  Elec       q    Type
REMARK                         _______ _______ _______ _____ _____    ______ ____
ROOT
ATOM      1 CL   UNL     1     -10.282   4.481  26.044  0.00  0.00    +0.000 Cl
ATOM      2  C   UNL     1     -11.134   6.060  26.136  0.00  0.00    +0.000 C 
ATOM      3 CL   UNL     1     -10.956   6.844  24.530  0.00  0.00    +0.000 Cl
ENDROOT
BRANCH   2   4
ATOM      4  C   UNL     1     -12.609   5.891  26.529  0.00  0.00    +0.000 C 
ATOM      5 CL   UNL     1     -13.715   6.442  25.226  0.00  0.00    +0.000 Cl
ATOM      6 CL   UNL     1     -13.017   4.175  26.869  0.00  0.00    +0.000 Cl
ENDBRANCH   2   4
TORSDOF 1
ENDMDL
MODEL 3
REMARK VINA RESULT:    -3.185      0.783      2.986
REMARK INTER + INTRA:          -3.371
REMARK INTER:                  -3.371
REMARK INTRA:                   0.000
REMARK UNBOUND:                 0.000
REMARK  Name = C:\Users\sofiya chavarekar\OneDrive\Assignment- Module 1\PROJECT(AI-based drug target identification for SDH-related rare disorders)\Data\Ligands\PDB\Ligand_0026.pdb
REMARK  1 active torsions:
REMARK  status: ('A' for Active; 'I' for Inactive)
REMARK    1  A    between atoms: C_2  and  C_4
REMARK                            x       y       z     vdW  Elec       q    Type
REMARK                         _______ _______ _______ _____ _____    ______ ____
ROOT
ATOM      1 CL   UNL     1     -14.078   5.288  26.024  0.00  0.00    +0.000 Cl
ATOM      2  C   UNL     1     -13.244   6.731  25.355  0.00  0.00    +0.000 C 
ATOM      3 CL   UNL     1     -14.003   8.172  26.114  0.00  0.00    +0.000 Cl
ENDROOT
BRANCH   2   4
ATOM      4  C   UNL     1     -11.730   6.684  25.609  0.00  0.00    +0.000 C 
ATOM      5 CL   UNL     1     -11.194   5.059  26.155  0.00  0.00    +0.000 Cl
ATOM      6 CL   UNL     1     -10.793   7.071  24.127  0.00  0.00    +0.000 Cl
ENDBRANCH   2   4
TORSDOF 1
ENDMDL
MODEL 4
REMARK VINA RESULT:    -3.008      0.831      2.542
REMARK INTER + INTRA:          -3.184
REMARK INTER:                  -3.184
REMARK INTRA:                   0.000
REMARK UNBOUND:                 0.000
REMARK  Name = C:\Users\sofiya chavarekar\OneDrive\Assignment- Module 1\PROJECT(AI-based drug target identification for SDH-related rare disorders)\Data\Ligands\PDB\Ligand_0026.pdb
REMARK  1 active torsions:
REMARK  status: ('A' for Active; 'I' for Inactive)
REMARK    1  A    between atoms: C_2  and  C_4
REMARK                            x       y       z     vdW  Elec       q    Type
REMARK                         _______ _______ _______ _____ _____    ______ ____
ROOT
ATOM      1 CL   UNL     1     -13.256   4.275  26.862  0.00  0.00    +0.000 Cl
ATOM      2  C   UNL     1     -12.226   5.703  26.511  0.00  0.00    +0.000 C 
ATOM      3 CL   UNL     1     -10.613   5.079  26.029  0.00  0.00    +0.000 Cl
ENDROOT
BRANCH   2   4
ATOM      4  C   UNL     1     -12.841   6.597  25.424  0.00  0.00    +0.000 C 
ATOM      5 CL   UNL     1     -13.784   7.954  26.129  0.00  0.00    +0.000 Cl
ATOM      6 CL   UNL     1     -11.584   7.327  24.370  0.00  0.00    +0.000 Cl
ENDBRANCH   2   4
TORSDOF 1
ENDMDL
MODEL 5
REMARK VINA RESULT:    -2.953      1.788      3.492
REMARK INTER + INTRA:          -3.125
REMARK INTER:                  -3.125
REMARK INTRA:                   0.000
REMARK UNBOUND:                 0.000
REMARK  Name = C:\Users\sofiya chavarekar\OneDrive\Assignment- Module 1\PROJECT(AI-based drug target identification for SDH-related rare disorders)\Data\Ligands\PDB\Ligand_0026.pdb
REMARK  1 active torsions:
REMARK  status: ('A' for Active; 'I' for Inactive)
REMARK    1  A    between atoms: C_2  and  C_4
REMARK                            x       y       z     vdW  Elec       q    Type
REMARK                         _______ _______ _______ _____ _____    ______ ____
ROOT
ATOM      1 CL   UNL     1     -14.167   4.807  28.727  0.00  0.00    +0.000 Cl
ATOM      2  C   UNL     1     -13.536   4.563  27.064  0.00  0.00    +0.000 C 
ATOM      3 CL   UNL     1     -14.949   4.197  26.017  0.00  0.00    +0.000 Cl
ENDROOT
BRANCH   2   4
ATOM      4  C   UNL     1     -12.756   5.787  26.563  0.00  0.00    +0.000 C 
ATOM      5 CL   UNL     1     -11.093   5.353  26.042  0.00  0.00    +0.000 Cl
ATOM      6 CL   UNL     1     -13.559   6.561  25.155  0.00  0.00    +0.000 Cl
ENDBRANCH   2   4
TORSDOF 1
ENDMDL
MODEL 6
REMARK VINA RESULT:    -2.908      0.634      2.400
REMARK INTER + INTRA:          -3.078
REMARK INTER:                  -3.078
REMARK INTRA:                   0.000
REMARK UNBOUND:                 0.000
REMARK  Name = C:\Users\sofiya chavarekar\OneDrive\Assignment- Module 1\PROJECT(AI-based drug target identification for SDH-related rare disorders)\Data\Ligands\PDB\Ligand_0026.pdb
REMARK  1 active torsions:
REMARK  status: ('A' for Active; 'I' for Inactive)
REMARK    1  A    between atoms: C_2  and  C_4
REMARK                            x       y       z     vdW  Elec       q    Type
REMARK                         _______ _______ _______ _____ _____    ______ ____
ROOT
ATOM      1 CL   UNL     1     -10.863   7.082  24.400  0.00  0.00    +0.000 Cl
ATOM      2  C   UNL     1     -11.523   5.787  25.456  0.00  0.00    +0.000 C 
ATOM      3 CL   UNL     1     -10.120   4.862  26.089  0.00  0.00    +0.000 Cl
ENDROOT
BRANCH   2   4
ATOM      4  C   UNL     1     -12.387   6.361  26.589  0.00  0.00    +0.000 C 
ATOM      5 CL   UNL     1     -13.471   7.670  26.008  0.00  0.00    +0.000 Cl
ATOM      6 CL   UNL     1     -13.437   5.105  27.330  0.00  0.00    +0.000 Cl
ENDBRANCH   2   4
TORSDOF 1
ENDMDL
MODEL 7
REMARK VINA RESULT:    -2.876      1.498      2.938
REMARK INTER + INTRA:          -3.044
REMARK INTER:                  -3.044
REMARK INTRA:                   0.000
REMARK UNBOUND:                 0.000
REMARK  Name = C:\Users\sofiya chavarekar\OneDrive\Assignment- Module 1\PROJECT(AI-based drug target identification for SDH-related rare disorders)\Data\Ligands\PDB\Ligand_0026.pdb
REMARK  1 active torsions:
REMARK  status: ('A' for Active; 'I' for Inactive)
REMARK    1  A    between atoms: C_2  and  C_4
REMARK                            x       y       z     vdW  Elec       q    Type
REMARK                         _______ _______ _______ _____ _____    ______ ____
ROOT
ATOM      1 CL   UNL     1     -14.947   7.224  26.371  0.00  0.00    +0.000 Cl
ATOM      2  C   UNL     1     -13.647   6.243  25.613  0.00  0.00    +0.000 C 
ATOM      3 CL   UNL     1     -12.659   7.364  24.616  0.00  0.00    +0.000 Cl
ENDROOT
BRANCH   2   4
ATOM      4  C   UNL     1     -12.797   5.514  26.664  0.00  0.00    +0.000 C 
ATOM      5 CL   UNL     1     -13.441   3.877  27.027  0.00  0.00    +0.000 Cl
ATOM      6 CL   UNL     1     -11.100   5.297  26.116  0.00  0.00    +0.000 Cl
ENDBRANCH   2   4
TORSDOF 1
ENDMDL
MODEL 8
REMARK VINA RESULT:    -2.848      1.641      2.913
REMARK INTER + INTRA:          -3.015
REMARK INTER:                  -3.015
REMARK INTRA:                   0.000
REMARK UNBOUND:                 0.000
REMARK  Name = C:\Users\sofiya chavarekar\OneDrive\Assignment- Module 1\PROJECT(AI-based drug target identification for SDH-related rare disorders)\Data\Ligands\PDB\Ligand_0026.pdb
REMARK  1 active torsions:
REMARK  status: ('A' for Active; 'I' for Inactive)
REMARK    1  A    between atoms: C_2  and  C_4
REMARK                            x       y       z     vdW  Elec       q    Type
REMARK                         _______ _______ _______ _____ _____    ______ ____
ROOT
ATOM      1 CL   UNL     1     -13.426   7.277  26.489  0.00  0.00    +0.000 Cl
ATOM      2  C   UNL     1     -12.898   5.638  25.979  0.00  0.00    +0.000 C 
ATOM      3 CL   UNL     1     -11.111   5.586  26.150  0.00  0.00    +0.000 Cl
ENDROOT
BRANCH   2   4
ATOM      4  C   UNL     1     -13.583   4.536  26.801  0.00  0.00    +0.000 C 
ATOM      5 CL   UNL     1     -14.052   5.115  28.435  0.00  0.00    +0.000 Cl
ATOM      6 CL   UNL     1     -15.081   3.943  26.007  0.00  0.00    +0.000 Cl
ENDBRANCH   2   4
TORSDOF 1
ENDMDL
MODEL 9
REMARK VINA RESULT:    -2.686      1.913      3.914
REMARK INTER + INTRA:          -2.843
REMARK INTER:                  -2.843
REMARK INTRA:                   0.000
REMARK UNBOUND:                 0.000
REMARK  Name = C:\Users\sofiya chavarekar\OneDrive\Assignment- Module 1\PROJECT(AI-based drug target identification for SDH-related rare disorders)\Data\Ligands\PDB\Ligand_0026.pdb
REMARK  1 active torsions:
REMARK  status: ('A' for Active; 'I' for Inactive)
REMARK    1  A    between atoms: C_2  and  C_4
REMARK                            x       y       z     vdW  Elec       q    Type
REMARK                         _______ _______ _______ _____ _____    ______ ____
ROOT
ATOM      1 CL   UNL     1     -15.232   3.815  25.995  0.00  0.00    +0.000 Cl
ATOM      2  C   UNL     1     -14.762   5.407  26.682  0.00  0.00    +0.000 C 
ATOM      3 CL   UNL     1     -14.093   5.094  28.319  0.00  0.00    +0.000 Cl
ENDROOT
BRANCH   2   4
ATOM      4  C   UNL     1     -13.755   6.141  25.784  0.00  0.00    +0.000 C 
ATOM      5 CL   UNL     1     -13.794   7.917  26.047  0.00  0.00    +0.000 Cl
ATOM      6 CL   UNL     1     -12.069   5.605  26.095  0.00  0.00    +0.000 Cl
ENDBRANCH   2   4
TORSDOF 1
ENDMDL
