MODEL 1
REMARK VINA RESULT:    -5.218      0.000      0.000
REMARK INTER + INTRA:          -5.218
REMARK INTER:                  -5.218
REMARK INTRA:                   0.000
REMARK UNBOUND:                 0.000
REMARK  Name = C:\Users\sofiya chavarekar\OneDrive\Assignment- Module 1\PROJECT(AI-based drug target identification for SDH-related rare disorders)\Data\Ligands\PDB\Ligand_0056.pdb
REMARK  0 active torsions:
REMARK  status: ('A' for Active; 'I' for Inactive)
REMARK                            x       y       z     vdW  Elec       q    Type
REMARK                         _______ _______ _______ _____ _____    ______ ____
ROOT
ATOM      1 BR   UNL     1     -17.235   7.432  27.238  0.00  0.00    +0.000 Br
ATOM      2  C   UNL     1     -15.518   6.673  27.013  0.00  0.00    +0.000 A 
ATOM      3  C   UNL     1     -15.156   5.554  27.757  0.00  0.00    +0.000 A 
ATOM      4  C   UNL     1     -13.888   4.994  27.592  0.00  0.00    +0.000 A 
ATOM      5  C   UNL     1     -12.972   5.549  26.683  0.00  0.00    +0.000 A 
ATOM      6  C   UNL     1     -11.693   4.998  26.510  0.00  0.00    +0.000 A 
ATOM      7  C   UNL     1     -10.792   5.559  25.603  0.00  0.00    +0.000 A 
ATOM      8  C   UNL     1     -11.159   6.675  24.858  0.00  0.00    +0.000 A 
ATOM      9  C   UNL     1     -12.428   7.235  25.018  0.00  0.00    +0.000 A 
ATOM     10  C   UNL     1     -13.345   6.685  25.927  0.00  0.00    +0.000 A 
ATOM     11  C   UNL     1     -14.625   7.239  26.103  0.00  0.00    +0.000 A 
ENDROOT
TORSDOF 0
ENDMDL
MODEL 2
REMARK VINA RESULT:    -5.154      2.555      4.582
REMARK INTER + INTRA:          -5.154
REMARK INTER:                  -5.154
REMARK INTRA:                   0.000
REMARK UNBOUND:                 0.000
REMARK  Name = C:\Users\sofiya chavarekar\OneDrive\Assignment- Module 1\PROJECT(AI-based drug target identification for SDH-related rare disorders)\Data\Ligands\PDB\Ligand_0056.pdb
REMARK  0 active torsions:
REMARK  status: ('A' for Active; 'I' for Inactive)
REMARK                            x       y       z     vdW  Elec       q    Type
REMARK                         _______ _______ _______ _____ _____    ______ ____
ROOT
ATOM      1 BR   UNL     1      -9.684   4.375  25.780  0.00  0.00    +0.000 Br
ATOM      2  C   UNL     1     -11.259   5.418  25.870  0.00  0.00    +0.000 A 
ATOM      3  C   UNL     1     -11.378   6.555  25.076  0.00  0.00    +0.000 A 
ATOM      4  C   UNL     1     -12.540   7.326  25.144  0.00  0.00    +0.000 A 
ATOM      5  C   UNL     1     -13.590   6.967  26.005  0.00  0.00    +0.000 A 
ATOM      6  C   UNL     1     -14.762   7.735  26.085  0.00  0.00    +0.000 A 
ATOM      7  C   UNL     1     -15.799   7.367  26.945  0.00  0.00    +0.000 A 
ATOM      8  C   UNL     1     -15.677   6.227  27.733  0.00  0.00    +0.000 A 
ATOM      9  C   UNL     1     -14.517   5.452  27.665  0.00  0.00    +0.000 A 
ATOM     10  C   UNL     1     -13.464   5.808  26.808  0.00  0.00    +0.000 A 
ATOM     11  C   UNL     1     -12.290   5.041  26.730  0.00  0.00    +0.000 A 
ENDROOT
TORSDOF 0
ENDMDL
MODEL 3
REMARK VINA RESULT:    -5.076      2.483      4.090
REMARK INTER + INTRA:          -5.076
REMARK INTER:                  -5.076
REMARK INTRA:                   0.000
REMARK UNBOUND:                 0.000
REMARK  Name = C:\Users\sofiya chavarekar\OneDrive\Assignment- Module 1\PROJECT(AI-based drug target identification for SDH-related rare disorders)\Data\Ligands\PDB\Ligand_0056.pdb
REMARK  0 active torsions:
REMARK  status: ('A' for Active; 'I' for Inactive)
REMARK                            x       y       z     vdW  Elec       q    Type
REMARK                         _______ _______ _______ _____ _____    ______ ____
ROOT
ATOM      1 BR   UNL     1     -10.514   5.162  25.812  0.00  0.00    +0.000 Br
ATOM      2  C   UNL     1     -12.301   5.684  26.143  0.00  0.00    +0.000 A 
ATOM      3  C   UNL     1     -13.225   4.739  26.580  0.00  0.00    +0.000 A 
ATOM      4  C   UNL     1     -14.544   5.123  26.823  0.00  0.00    +0.000 A 
ATOM      5  C   UNL     1     -14.951   6.453  26.630  0.00  0.00    +0.000 A 
ATOM      6  C   UNL     1     -16.276   6.852  26.867  0.00  0.00    +0.000 A 
ATOM      7  C   UNL     1     -16.667   8.178  26.671  0.00  0.00    +0.000 A 
ATOM      8  C   UNL     1     -15.740   9.120  26.238  0.00  0.00    +0.000 A 
ATOM      9  C   UNL     1     -14.418   8.740  25.997  0.00  0.00    +0.000 A 
ATOM     10  C   UNL     1     -14.008   7.411  26.187  0.00  0.00    +0.000 A 
ATOM     11  C   UNL     1     -12.682   7.011  25.946  0.00  0.00    +0.000 A 
ENDROOT
TORSDOF 0
ENDMDL
MODEL 4
REMARK VINA RESULT:    -4.910      0.913      2.170
REMARK INTER + INTRA:          -4.910
REMARK INTER:                  -4.910
REMARK INTRA:                   0.000
REMARK UNBOUND:                 0.000
REMARK  Name = C:\Users\sofiya chavarekar\OneDrive\Assignment- Module 1\PROJECT(AI-based drug target identification for SDH-related rare disorders)\Data\Ligands\PDB\Ligand_0056.pdb
REMARK  0 active torsions:
REMARK  status: ('A' for Active; 'I' for Inactive)
REMARK                            x       y       z     vdW  Elec       q    Type
REMARK                         _______ _______ _______ _____ _____    ______ ____
ROOT
ATOM      1 BR   UNL     1     -16.951   5.270  28.887  0.00  0.00    +0.000 Br
ATOM      2  C   UNL     1     -15.596   5.886  27.720  0.00  0.00    +0.000 A 
ATOM      3  C   UNL     1     -15.831   6.999  26.918  0.00  0.00    +0.000 A 
ATOM      4  C   UNL     1     -14.832   7.451  26.055  0.00  0.00    +0.000 A 
ATOM      5  C   UNL     1     -13.592   6.796  25.987  0.00  0.00    +0.000 A 
ATOM      6  C   UNL     1     -12.579   7.239  25.121  0.00  0.00    +0.000 A 
ATOM      7  C   UNL     1     -11.351   6.578  25.063  0.00  0.00    +0.000 A 
ATOM      8  C   UNL     1     -11.119   5.469  25.869  0.00  0.00    +0.000 A 
ATOM      9  C   UNL     1     -12.116   5.015  26.736  0.00  0.00    +0.000 A 
ATOM     10  C   UNL     1     -13.357   5.666  26.806  0.00  0.00    +0.000 A 
ATOM     11  C   UNL     1     -14.371   5.220  27.670  0.00  0.00    +0.000 A 
ENDROOT
TORSDOF 0
ENDMDL
MODEL 5
REMARK VINA RESULT:    -4.143      1.414      2.006
REMARK INTER + INTRA:          -4.143
REMARK INTER:                  -4.143
REMARK INTRA:                   0.000
REMARK UNBOUND:                 0.000
REMARK  Name = C:\Users\sofiya chavarekar\OneDrive\Assignment- Module 1\PROJECT(AI-based drug target identification for SDH-related rare disorders)\Data\Ligands\PDB\Ligand_0056.pdb
REMARK  0 active torsions:
REMARK  status: ('A' for Active; 'I' for Inactive)
REMARK                            x       y       z     vdW  Elec       q    Type
REMARK                         _______ _______ _______ _____ _____    ______ ____
ROOT
ATOM      1 BR   UNL     1     -19.017   5.758  27.954  0.00  0.00    +0.000 Br
ATOM      2  C   UNL     1     -17.202   5.447  27.521  0.00  0.00    +0.000 A 
ATOM      3  C   UNL     1     -16.675   4.165  27.640  0.00  0.00    +0.000 A 
ATOM      4  C   UNL     1     -15.336   3.936  27.322  0.00  0.00    +0.000 A 
ATOM      5  C   UNL     1     -14.513   4.985  26.884  0.00  0.00    +0.000 A 
ATOM      6  C   UNL     1     -13.163   4.769  26.563  0.00  0.00    +0.000 A 
ATOM      7  C   UNL     1     -12.356   5.822  26.128  0.00  0.00    +0.000 A 
ATOM      8  C   UNL     1     -12.888   7.102  26.006  0.00  0.00    +0.000 A 
ATOM      9  C   UNL     1     -14.229   7.334  26.320  0.00  0.00    +0.000 A 
ATOM     10  C   UNL     1     -15.054   6.288  26.762  0.00  0.00    +0.000 A 
ATOM     11  C   UNL     1     -16.404   6.505  27.085  0.00  0.00    +0.000 A 
ENDROOT
TORSDOF 0
ENDMDL
MODEL 6
REMARK VINA RESULT:    -4.102     10.686     11.311
REMARK INTER + INTRA:          -4.102
REMARK INTER:                  -4.102
REMARK INTRA:                   0.000
REMARK UNBOUND:                 0.000
REMARK  Name = C:\Users\sofiya chavarekar\OneDrive\Assignment- Module 1\PROJECT(AI-based drug target identification for SDH-related rare disorders)\Data\Ligands\PDB\Ligand_0056.pdb
REMARK  0 active torsions:
REMARK  status: ('A' for Active; 'I' for Inactive)
REMARK                            x       y       z     vdW  Elec       q    Type
REMARK                         _______ _______ _______ _____ _____    ______ ____
ROOT
ATOM      1 BR   UNL     1     -22.465  -2.342  18.981  0.00  0.00    +0.000 Br
ATOM      2  C   UNL     1     -21.083  -2.298  20.272  0.00  0.00    +0.000 A 
ATOM      3  C   UNL     1     -20.478  -3.486  20.674  0.00  0.00    +0.000 A 
ATOM      4  C   UNL     1     -19.460  -3.454  21.627  0.00  0.00    +0.000 A 
ATOM      5  C   UNL     1     -19.038  -2.237  22.187  0.00  0.00    +0.000 A 
ATOM      6  C   UNL     1     -18.017  -2.191  23.149  0.00  0.00    +0.000 A 
ATOM      7  C   UNL     1     -17.608  -0.974  23.697  0.00  0.00    +0.000 A 
ATOM      8  C   UNL     1     -18.212   0.211  23.290  0.00  0.00    +0.000 A 
ATOM      9  C   UNL     1     -19.230   0.183  22.334  0.00  0.00    +0.000 A 
ATOM     10  C   UNL     1     -19.655  -1.032  21.773  0.00  0.00    +0.000 A 
ATOM     11  C   UNL     1     -20.680  -1.078  20.813  0.00  0.00    +0.000 A 
ENDROOT
TORSDOF 0
ENDMDL
MODEL 7
REMARK VINA RESULT:    -3.884      5.065      6.671
REMARK INTER + INTRA:          -3.884
REMARK INTER:                  -3.884
REMARK INTRA:                   0.000
REMARK UNBOUND:                 0.000
REMARK  Name = C:\Users\sofiya chavarekar\OneDrive\Assignment- Module 1\PROJECT(AI-based drug target identification for SDH-related rare disorders)\Data\Ligands\PDB\Ligand_0056.pdb
REMARK  0 active torsions:
REMARK  status: ('A' for Active; 'I' for Inactive)
REMARK                            x       y       z     vdW  Elec       q    Type
REMARK                         _______ _______ _______ _____ _____    ______ ____
ROOT
ATOM      1 BR   UNL     1     -12.661  -1.185  29.809  0.00  0.00    +0.000 Br
ATOM      2  C   UNL     1     -13.561   0.133  28.794  0.00  0.00    +0.000 A 
ATOM      3  C   UNL     1     -13.087   1.442  28.789  0.00  0.00    +0.000 A 
ATOM      4  C   UNL     1     -13.752   2.414  28.041  0.00  0.00    +0.000 A 
ATOM      5  C   UNL     1     -14.896   2.088  27.295  0.00  0.00    +0.000 A 
ATOM      6  C   UNL     1     -15.576   3.057  26.541  0.00  0.00    +0.000 A 
ATOM      7  C   UNL     1     -16.712   2.719  25.803  0.00  0.00    +0.000 A 
ATOM      8  C   UNL     1     -17.180   1.409  25.808  0.00  0.00    +0.000 A 
ATOM      9  C   UNL     1     -16.515   0.433  26.553  0.00  0.00    +0.000 A 
ATOM     10  C   UNL     1     -15.373   0.755  27.302  0.00  0.00    +0.000 A 
ATOM     11  C   UNL     1     -14.694  -0.215  28.059  0.00  0.00    +0.000 A 
ENDROOT
TORSDOF 0
ENDMDL
MODEL 8
REMARK VINA RESULT:    -3.688     10.321     11.041
REMARK INTER + INTRA:          -3.688
REMARK INTER:                  -3.688
REMARK INTRA:                   0.000
REMARK UNBOUND:                 0.000
REMARK  Name = C:\Users\sofiya chavarekar\OneDrive\Assignment- Module 1\PROJECT(AI-based drug target identification for SDH-related rare disorders)\Data\Ligands\PDB\Ligand_0056.pdb
REMARK  0 active torsions:
REMARK  status: ('A' for Active; 'I' for Inactive)
REMARK                            x       y       z     vdW  Elec       q    Type
REMARK                         _______ _______ _______ _____ _____    ______ ____
ROOT
ATOM      1 BR   UNL     1     -20.018   2.262  24.263  0.00  0.00    +0.000 Br
ATOM      2  C   UNL     1     -19.891   0.698  23.208  0.00  0.00    +0.000 A 
ATOM      3  C   UNL     1     -19.034  -0.327  23.596  0.00  0.00    +0.000 A 
ATOM      4  C   UNL     1     -18.938  -1.481  22.816  0.00  0.00    +0.000 A 
ATOM      5  C   UNL     1     -19.697  -1.618  21.643  0.00  0.00    +0.000 A 
ATOM      6  C   UNL     1     -19.609  -2.772  20.848  0.00  0.00    +0.000 A 
ATOM      7  C   UNL     1     -20.369  -2.895  19.683  0.00  0.00    +0.000 A 
ATOM      8  C   UNL     1     -21.227  -1.869  19.301  0.00  0.00    +0.000 A 
ATOM      9  C   UNL     1     -21.327  -0.715  20.080  0.00  0.00    +0.000 A 
ATOM     10  C   UNL     1     -20.569  -0.573  21.253  0.00  0.00    +0.000 A 
ATOM     11  C   UNL     1     -20.656   0.583  22.047  0.00  0.00    +0.000 A 
ENDROOT
TORSDOF 0
ENDMDL
MODEL 9
REMARK VINA RESULT:    -3.641      7.632      9.616
REMARK INTER + INTRA:          -3.641
REMARK INTER:                  -3.641
REMARK INTRA:                   0.000
REMARK UNBOUND:                 0.000
REMARK  Name = C:\Users\sofiya chavarekar\OneDrive\Assignment- Module 1\PROJECT(AI-based drug target identification for SDH-related rare disorders)\Data\Ligands\PDB\Ligand_0056.pdb
REMARK  0 active torsions:
REMARK  status: ('A' for Active; 'I' for Inactive)
REMARK                            x       y       z     vdW  Elec       q    Type
REMARK                         _______ _______ _______ _____ _____    ______ ____
ROOT
ATOM      1 BR   UNL     1     -12.735  -1.095  29.885  0.00  0.00    +0.000 Br
ATOM      2  C   UNL     1     -14.545  -0.614  30.151  0.00  0.00    +0.000 A 
ATOM      3  C   UNL     1     -15.273  -0.064  29.100  0.00  0.00    +0.000 A 
ATOM      4  C   UNL     1     -16.608   0.293  29.296  0.00  0.00    +0.000 A 
ATOM      5  C   UNL     1     -17.225   0.104  30.543  0.00  0.00    +0.000 A 
ATOM      6  C   UNL     1     -18.566   0.461  30.755  0.00  0.00    +0.000 A 
ATOM      7  C   UNL     1     -19.167   0.268  32.001  0.00  0.00    +0.000 A 
ATOM      8  C   UNL     1     -18.437  -0.286  33.047  0.00  0.00    +0.000 A 
ATOM      9  C   UNL     1     -17.102  -0.646  32.853  0.00  0.00    +0.000 A 
ATOM     10  C   UNL     1     -16.481  -0.457  31.608  0.00  0.00    +0.000 A 
ATOM     11  C   UNL     1     -15.138  -0.812  31.398  0.00  0.00    +0.000 A 
ENDROOT
TORSDOF 0
ENDMDL
