MODEL 1
REMARK VINA RESULT:    -3.776      0.000      0.000
REMARK INTER + INTRA:          -5.403
REMARK INTER:                  -4.880
REMARK INTRA:                  -0.523
REMARK UNBOUND:                -0.523
REMARK  Name = C:\Users\sofiya chavarekar\OneDrive\Assignment- Module 1\PROJECT(AI-based drug target identification for SDH-related rare disorders)\Data\Ligands\PDB\Ligand_0007.pdb
REMARK  6 active torsions:
REMARK  status: ('A' for Active; 'I' for Inactive)
REMARK    1  A    between atoms: C_2  and  C_3
REMARK    2  A    between atoms: C_3  and  C_4
REMARK    3  A    between atoms: C_4  and  C_5
REMARK    4  A    between atoms: C_5  and  C_6
REMARK    5  A    between atoms: C_6  and  C_7
REMARK    6  A    between atoms: C_7  and  C_8
REMARK                            x       y       z     vdW  Elec       q    Type
REMARK                         _______ _______ _______ _____ _____    ______ ____
ROOT
ATOM      1  C   UNL     1     -12.465   6.677  26.187  0.00  0.00    +0.000 C 
ENDROOT
BRANCH   1   2
ATOM      2  C   UNL     1     -11.230   6.557  25.306  0.00  0.00    +0.000 C 
BRANCH   2   4
ATOM      3  C   UNL     1      -9.831   4.199  25.985  0.00  0.00    +0.000 C 
ATOM      4  C   UNL     1     -10.477   5.288  25.672  0.00  0.00    +0.000 C 
ENDBRANCH   2   4
ENDBRANCH   1   2
BRANCH   1   5
ATOM      5  C   UNL     1     -13.712   6.279  25.408  0.00  0.00    +0.000 C 
BRANCH   5   6
ATOM      6  C   UNL     1     -14.487   5.182  26.128  0.00  0.00    +0.000 C 
BRANCH   6   7
ATOM      7  C   UNL     1     -13.769   4.747  27.400  0.00  0.00    +0.000 C 
ATOM      8  C   UNL     1     -13.657   3.232  27.467  0.00  0.00    +0.000 C 
ENDBRANCH   6   7
ENDBRANCH   5   6
ENDBRANCH   1   5
TORSDOF 5
ENDMDL
MODEL 2
REMARK VINA RESULT:    -3.670      1.095      3.571
REMARK INTER + INTRA:          -5.265
REMARK INTER:                  -4.821
REMARK INTRA:                  -0.443
REMARK UNBOUND:                -0.523
REMARK  Name = C:\Users\sofiya chavarekar\OneDrive\Assignment- Module 1\PROJECT(AI-based drug target identification for SDH-related rare disorders)\Data\Ligands\PDB\Ligand_0007.pdb
REMARK  6 active torsions:
REMARK  status: ('A' for Active; 'I' for Inactive)
REMARK    1  A    between atoms: C_2  and  C_3
REMARK    2  A    between atoms: C_3  and  C_4
REMARK    3  A    between atoms: C_4  and  C_5
REMARK    4  A    between atoms: C_5  and  C_6
REMARK    5  A    between atoms: C_6  and  C_7
REMARK    6  A    between atoms: C_7  and  C_8
REMARK                            x       y       z     vdW  Elec       q    Type
REMARK                         _______ _______ _______ _____ _____    ______ ____
ROOT
ATOM      1  C   UNL     1     -13.435   7.314  26.368  0.00  0.00    +0.000 C 
ENDROOT
BRANCH   1   2
ATOM      2  C   UNL     1     -14.863   6.790  26.411  0.00  0.00    +0.000 C 
BRANCH   2   4
ATOM      3  C   UNL     1     -14.820   3.967  26.372  0.00  0.00    +0.000 C 
ATOM      4  C   UNL     1     -14.839   5.271  26.390  0.00  0.00    +0.000 C 
ENDBRANCH   2   4
ENDBRANCH   1   2
BRANCH   1   5
ATOM      5  C   UNL     1     -12.798   7.002  25.020  0.00  0.00    +0.000 C 
BRANCH   5   6
ATOM      6  C   UNL     1     -11.326   6.637  25.177  0.00  0.00    +0.000 C 
BRANCH   6   7
ATOM      7  C   UNL     1     -11.140   5.533  26.212  0.00  0.00    +0.000 C 
ATOM      8  C   UNL     1      -9.990   4.617  25.826  0.00  0.00    +0.000 C 
ENDBRANCH   6   7
ENDBRANCH   5   6
ENDBRANCH   1   5
TORSDOF 5
ENDMDL
MODEL 3
REMARK VINA RESULT:    -3.438      1.791      2.758
REMARK INTER + INTRA:          -4.965
REMARK INTER:                  -4.761
REMARK INTRA:                  -0.204
REMARK UNBOUND:                -0.523
REMARK  Name = C:\Users\sofiya chavarekar\OneDrive\Assignment- Module 1\PROJECT(AI-based drug target identification for SDH-related rare disorders)\Data\Ligands\PDB\Ligand_0007.pdb
REMARK  6 active torsions:
REMARK  status: ('A' for Active; 'I' for Inactive)
REMARK    1  A    between atoms: C_2  and  C_3
REMARK    2  A    between atoms: C_3  and  C_4
REMARK    3  A    between atoms: C_4  and  C_5
REMARK    4  A    between atoms: C_5  and  C_6
REMARK    5  A    between atoms: C_6  and  C_7
REMARK    6  A    between atoms: C_7  and  C_8
REMARK                            x       y       z     vdW  Elec       q    Type
REMARK                         _______ _______ _______ _____ _____    ______ ____
ROOT
ATOM      1  C   UNL     1     -12.959   5.708  26.403  0.00  0.00    +0.000 C 
ENDROOT
BRANCH   1   2
ATOM      2  C   UNL     1     -11.656   6.250  25.834  0.00  0.00    +0.000 C 
BRANCH   2   4
ATOM      3  C   UNL     1      -9.695   4.219  25.906  0.00  0.00    +0.000 C 
ATOM      4  C   UNL     1     -10.600   5.157  25.873  0.00  0.00    +0.000 C 
ENDBRANCH   2   4
ENDBRANCH   1   2
BRANCH   1   5
ATOM      5  C   UNL     1     -14.136   6.548  25.924  0.00  0.00    +0.000 C 
BRANCH   5   6
ATOM      6  C   UNL     1     -13.844   8.038  26.063  0.00  0.00    +0.000 C 
BRANCH   6   7
ATOM      7  C   UNL     1     -15.119   8.824  26.345  0.00  0.00    +0.000 C 
ATOM      8  C   UNL     1     -16.333   7.909  26.333  0.00  0.00    +0.000 C 
ENDBRANCH   6   7
ENDBRANCH   5   6
ENDBRANCH   1   5
TORSDOF 5
ENDMDL
MODEL 4
REMARK VINA RESULT:    -3.387      0.967      3.587
REMARK INTER + INTRA:          -4.899
REMARK INTER:                  -4.448
REMARK INTRA:                  -0.451
REMARK UNBOUND:                -0.523
REMARK  Name = C:\Users\sofiya chavarekar\OneDrive\Assignment- Module 1\PROJECT(AI-based drug target identification for SDH-related rare disorders)\Data\Ligands\PDB\Ligand_0007.pdb
REMARK  6 active torsions:
REMARK  status: ('A' for Active; 'I' for Inactive)
REMARK    1  A    between atoms: C_2  and  C_3
REMARK    2  A    between atoms: C_3  and  C_4
REMARK    3  A    between atoms: C_4  and  C_5
REMARK    4  A    between atoms: C_5  and  C_6
REMARK    5  A    between atoms: C_6  and  C_7
REMARK    6  A    between atoms: C_7  and  C_8
REMARK                            x       y       z     vdW  Elec       q    Type
REMARK                         _______ _______ _______ _____ _____    ______ ____
ROOT
ATOM      1  C   UNL     1     -14.558   5.789  26.653  0.00  0.00    +0.000 C 
ENDROOT
BRANCH   1   2
ATOM      2  C   UNL     1     -14.735   4.366  26.144  0.00  0.00    +0.000 C 
BRANCH   2   4
ATOM      3  C   UNL     1     -13.695   2.561  28.051  0.00  0.00    +0.000 C 
ATOM      4  C   UNL     1     -14.175   3.395  27.170  0.00  0.00    +0.000 C 
ENDBRANCH   2   4
ENDBRANCH   1   2
BRANCH   1   5
ATOM      5  C   UNL     1     -13.080   6.099  26.855  0.00  0.00    +0.000 C 
BRANCH   5   6
ATOM      6  C   UNL     1     -12.537   6.963  25.722  0.00  0.00    +0.000 C 
BRANCH   6   7
ATOM      7  C   UNL     1     -11.205   6.426  25.212  0.00  0.00    +0.000 C 
ATOM      8  C   UNL     1     -10.746   5.239  26.043  0.00  0.00    +0.000 C 
ENDBRANCH   6   7
ENDBRANCH   5   6
ENDBRANCH   1   5
TORSDOF 5
ENDMDL
MODEL 5
REMARK VINA RESULT:    -3.293      1.646      4.087
REMARK INTER + INTRA:          -4.779
REMARK INTER:                  -4.546
REMARK INTRA:                  -0.232
REMARK UNBOUND:                -0.523
REMARK  Name = C:\Users\sofiya chavarekar\OneDrive\Assignment- Module 1\PROJECT(AI-based drug target identification for SDH-related rare disorders)\Data\Ligands\PDB\Ligand_0007.pdb
REMARK  6 active torsions:
REMARK  status: ('A' for Active; 'I' for Inactive)
REMARK    1  A    between atoms: C_2  and  C_3
REMARK    2  A    between atoms: C_3  and  C_4
REMARK    3  A    between atoms: C_4  and  C_5
REMARK    4  A    between atoms: C_5  and  C_6
REMARK    5  A    between atoms: C_6  and  C_7
REMARK    6  A    between atoms: C_7  and  C_8
REMARK                            x       y       z     vdW  Elec       q    Type
REMARK                         _______ _______ _______ _____ _____    ______ ____
ROOT
ATOM      1  C   UNL     1     -12.562   6.290  26.202  0.00  0.00    +0.000 C 
ENDROOT
BRANCH   1   2
ATOM      2  C   UNL     1     -13.997   6.623  25.823  0.00  0.00    +0.000 C 
BRANCH   2   4
ATOM      3  C   UNL     1     -14.586   9.261  26.642  0.00  0.00    +0.000 C 
ATOM      4  C   UNL     1     -14.314   8.043  26.263  0.00  0.00    +0.000 C 
ENDBRANCH   2   4
ENDBRANCH   1   2
BRANCH   1   5
ATOM      5  C   UNL     1     -11.618   6.638  25.058  0.00  0.00    +0.000 C 
BRANCH   5   6
ATOM      6  C   UNL     1     -10.398   5.725  25.052  0.00  0.00    +0.000 C 
BRANCH   6   7
ATOM      7  C   UNL     1     -10.410   4.782  26.250  0.00  0.00    +0.000 C 
ATOM      8  C   UNL     1      -9.601   3.528  25.960  0.00  0.00    +0.000 C 
ENDBRANCH   6   7
ENDBRANCH   5   6
ENDBRANCH   1   5
TORSDOF 5
ENDMDL
MODEL 6
REMARK VINA RESULT:    -3.293      1.525      2.061
REMARK INTER + INTRA:          -4.778
REMARK INTER:                  -4.598
REMARK INTRA:                  -0.180
REMARK UNBOUND:                -0.523
REMARK  Name = C:\Users\sofiya chavarekar\OneDrive\Assignment- Module 1\PROJECT(AI-based drug target identification for SDH-related rare disorders)\Data\Ligands\PDB\Ligand_0007.pdb
REMARK  6 active torsions:
REMARK  status: ('A' for Active; 'I' for Inactive)
REMARK    1  A    between atoms: C_2  and  C_3
REMARK    2  A    between atoms: C_3  and  C_4
REMARK    3  A    between atoms: C_4  and  C_5
REMARK    4  A    between atoms: C_5  and  C_6
REMARK    5  A    between atoms: C_6  and  C_7
REMARK    6  A    between atoms: C_7  and  C_8
REMARK                            x       y       z     vdW  Elec       q    Type
REMARK                         _______ _______ _______ _____ _____    ______ ____
ROOT
ATOM      1  C   UNL     1     -13.147   5.580  27.221  0.00  0.00    +0.000 C 
ENDROOT
BRANCH   1   2
ATOM      2  C   UNL     1     -12.220   6.246  26.215  0.00  0.00    +0.000 C 
BRANCH   2   4
ATOM      3  C   UNL     1      -9.906   4.658  25.893  0.00  0.00    +0.000 C 
ATOM      4  C   UNL     1     -10.975   5.391  26.042  0.00  0.00    +0.000 C 
ENDBRANCH   2   4
ENDBRANCH   1   2
BRANCH   1   5
ATOM      5  C   UNL     1     -13.237   4.084  26.948  0.00  0.00    +0.000 C 
BRANCH   5   6
ATOM      6  C   UNL     1     -14.631   3.549  27.258  0.00  0.00    +0.000 C 
BRANCH   6   7
ATOM      7  C   UNL     1     -15.537   3.635  26.034  0.00  0.00    +0.000 C 
ATOM      8  C   UNL     1     -16.612   2.562  26.081  0.00  0.00    +0.000 C 
ENDBRANCH   6   7
ENDBRANCH   5   6
ENDBRANCH   1   5
TORSDOF 5
ENDMDL
MODEL 7
REMARK VINA RESULT:    -3.140      1.660      4.472
REMARK INTER + INTRA:          -4.580
REMARK INTER:                  -4.296
REMARK INTRA:                  -0.284
REMARK UNBOUND:                -0.523
REMARK  Name = C:\Users\sofiya chavarekar\OneDrive\Assignment- Module 1\PROJECT(AI-based drug target identification for SDH-related rare disorders)\Data\Ligands\PDB\Ligand_0007.pdb
REMARK  6 active torsions:
REMARK  status: ('A' for Active; 'I' for Inactive)
REMARK    1  A    between atoms: C_2  and  C_3
REMARK    2  A    between atoms: C_3  and  C_4
REMARK    3  A    between atoms: C_4  and  C_5
REMARK    4  A    between atoms: C_5  and  C_6
REMARK    5  A    between atoms: C_6  and  C_7
REMARK    6  A    between atoms: C_7  and  C_8
REMARK                            x       y       z     vdW  Elec       q    Type
REMARK                         _______ _______ _______ _____ _____    ______ ____
ROOT
ATOM      1  C   UNL     1     -14.381   5.270  26.249  0.00  0.00    +0.000 C 
ENDROOT
BRANCH   1   2
ATOM      2  C   UNL     1     -15.578   5.759  27.051  0.00  0.00    +0.000 C 
BRANCH   2   4
ATOM      3  C   UNL     1     -16.301   8.340  26.163  0.00  0.00    +0.000 C 
ATOM      4  C   UNL     1     -15.967   7.148  26.573  0.00  0.00    +0.000 C 
ENDBRANCH   2   4
ENDBRANCH   1   2
BRANCH   1   5
ATOM      5  C   UNL     1     -13.139   6.075  26.607  0.00  0.00    +0.000 C 
BRANCH   5   6
ATOM      6  C   UNL     1     -12.550   6.758  25.377  0.00  0.00    +0.000 C 
BRANCH   6   7
ATOM      7  C   UNL     1     -11.062   6.456  25.241  0.00  0.00    +0.000 C 
ATOM      8  C   UNL     1     -10.694   5.192  26.001  0.00  0.00    +0.000 C 
ENDBRANCH   6   7
ENDBRANCH   5   6
ENDBRANCH   1   5
TORSDOF 5
ENDMDL
MODEL 8
REMARK VINA RESULT:    -2.979      2.734      3.889
REMARK INTER + INTRA:          -4.373
REMARK INTER:                  -4.127
REMARK INTRA:                  -0.246
REMARK UNBOUND:                -0.523
REMARK  Name = C:\Users\sofiya chavarekar\OneDrive\Assignment- Module 1\PROJECT(AI-based drug target identification for SDH-related rare disorders)\Data\Ligands\PDB\Ligand_0007.pdb
REMARK  6 active torsions:
REMARK  status: ('A' for Active; 'I' for Inactive)
REMARK    1  A    between atoms: C_2  and  C_3
REMARK    2  A    between atoms: C_3  and  C_4
REMARK    3  A    between atoms: C_4  and  C_5
REMARK    4  A    between atoms: C_5  and  C_6
REMARK    5  A    between atoms: C_6  and  C_7
REMARK    6  A    between atoms: C_7  and  C_8
REMARK                            x       y       z     vdW  Elec       q    Type
REMARK                         _______ _______ _______ _____ _____    ______ ____
ROOT
ATOM      1  C   UNL     1     -14.274   6.548  26.388  0.00  0.00    +0.000 C 
ENDROOT
BRANCH   1   2
ATOM      2  C   UNL     1     -13.181   6.978  25.420  0.00  0.00    +0.000 C 
BRANCH   2   4
ATOM      3  C   UNL     1     -10.829   5.512  25.964  0.00  0.00    +0.000 C 
ATOM      4  C   UNL     1     -11.915   6.189  25.713  0.00  0.00    +0.000 C 
ENDBRANCH   2   4
ENDBRANCH   1   2
BRANCH   1   5
ATOM      5  C   UNL     1     -15.481   7.469  26.266  0.00  0.00    +0.000 C 
BRANCH   5   6
ATOM      6  C   UNL     1     -15.445   8.569  27.321  0.00  0.00    +0.000 C 
BRANCH   6   7
ATOM      7  C   UNL     1     -15.979   9.883  26.763  0.00  0.00    +0.000 C 
ATOM      8  C   UNL     1     -14.997  10.489  25.773  0.00  0.00    +0.000 C 
ENDBRANCH   6   7
ENDBRANCH   5   6
ENDBRANCH   1   5
TORSDOF 5
ENDMDL
MODEL 9
REMARK VINA RESULT:    -2.972      1.434      3.610
REMARK INTER + INTRA:          -4.363
REMARK INTER:                  -4.117
REMARK INTRA:                  -0.246
REMARK UNBOUND:                -0.523
REMARK  Name = C:\Users\sofiya chavarekar\OneDrive\Assignment- Module 1\PROJECT(AI-based drug target identification for SDH-related rare disorders)\Data\Ligands\PDB\Ligand_0007.pdb
REMARK  6 active torsions:
REMARK  status: ('A' for Active; 'I' for Inactive)
REMARK    1  A    between atoms: C_2  and  C_3
REMARK    2  A    between atoms: C_3  and  C_4
REMARK    3  A    between atoms: C_4  and  C_5
REMARK    4  A    between atoms: C_5  and  C_6
REMARK    5  A    between atoms: C_6  and  C_7
REMARK    6  A    between atoms: C_7  and  C_8
REMARK                            x       y       z     vdW  Elec       q    Type
REMARK                         _______ _______ _______ _____ _____    ______ ____
ROOT
ATOM      1  C   UNL     1     -12.267   4.944  26.516  0.00  0.00    +0.000 C 
ENDROOT
BRANCH   1   2
ATOM      2  C   UNL     1     -13.721   4.524  26.669  0.00  0.00    +0.000 C 
BRANCH   2   4
ATOM      3  C   UNL     1     -13.846   2.141  28.180  0.00  0.00    +0.000 C 
ATOM      4  C   UNL     1     -13.788   3.241  27.482  0.00  0.00    +0.000 C 
ENDBRANCH   2   4
ENDBRANCH   1   2
BRANCH   1   5
ATOM      5  C   UNL     1     -12.181   6.387  26.037  0.00  0.00    +0.000 C 
BRANCH   5   6
ATOM      6  C   UNL     1     -13.487   6.833  25.389  0.00  0.00    +0.000 C 
BRANCH   6   7
ATOM      7  C   UNL     1     -14.073   8.042  26.109  0.00  0.00    +0.000 C 
ATOM      8  C   UNL     1     -15.539   7.817  26.439  0.00  0.00    +0.000 C 
ENDBRANCH   6   7
ENDBRANCH   5   6
ENDBRANCH   1   5
TORSDOF 5
ENDMDL
