MODEL 1
REMARK VINA RESULT:    -5.291      0.000      0.000
REMARK INTER + INTRA:          -9.165
REMARK INTER:                  -8.384
REMARK INTRA:                  -0.781
REMARK UNBOUND:                -0.781
REMARK  Name = C:\Users\sofiya chavarekar\OneDrive\Assignment- Module 1\PROJECT(AI-based drug target identification for SDH-related rare disorders)\Data\Ligands\PDB\Ligand_0094.pdb
REMARK  12 active torsions:
REMARK  status: ('A' for Active; 'I' for Inactive)
REMARK    1  A    between atoms: C_1  and  C_2
REMARK    2  A    between atoms: C_2  and  C_3
REMARK    3  A    between atoms: C_3  and  C_4
REMARK    4  A    between atoms: C_4  and  O_5
REMARK    5  A    between atoms: O_5  and  C_6
REMARK    6  A    between atoms: C_6  and  C_8
REMARK    7  A    between atoms: C_13  and  C_14
REMARK    8  A    between atoms: C_14  and  O_16
REMARK    9  A    between atoms: O_16  and  C_17
REMARK   10  A    between atoms: C_17  and  C_18
REMARK   11  A    between atoms: C_18  and  C_19
REMARK   12  A    between atoms: C_19  and  C_20
REMARK                            x       y       z     vdW  Elec       q    Type
REMARK                         _______ _______ _______ _____ _____    ______ ____
ROOT
ATOM      1  C   UNL     1     -13.108   5.498  26.893  0.00  0.00    +0.000 A 
ATOM      2  C   UNL     1     -11.873   4.933  26.517  0.00  0.00    +0.000 A 
ATOM      3  C   UNL     1     -11.043   5.579  25.607  0.00  0.00    +0.000 A 
ATOM      4  C   UNL     1     -11.421   6.804  25.077  0.00  0.00    +0.000 A 
ATOM      5  C   UNL     1     -12.631   7.385  25.464  0.00  0.00    +0.000 A 
ATOM      6  C   UNL     1     -13.486   6.745  26.383  0.00  0.00    +0.000 A 
ENDROOT
BRANCH   1   7
ATOM      7  C   UNL     1     -13.910   4.754  27.890  0.00  0.00    +0.000 C 
ATOM      8  O   UNL     1     -14.084   5.109  29.041  0.00  0.00    +0.000 OA
BRANCH   7   9
ATOM      9  O   UNL     1     -14.259   3.567  27.329  0.00  0.00    +0.000 OA
BRANCH   9  10
ATOM     10  C   UNL     1     -14.519   2.484  28.232  0.00  0.00    +0.000 C 
BRANCH  10  11
ATOM     11  C   UNL     1     -13.284   1.624  28.473  0.00  0.00    +0.000 C 
BRANCH  11  13
ATOM     12  C   UNL     1     -12.877  -0.551  29.663  0.00  0.00    +0.000 C 
ATOM     13  C   UNL     1     -13.614   0.131  28.521  0.00  0.00    +0.000 C 
ENDBRANCH  11  13
ENDBRANCH  10  11
ENDBRANCH   9  10
ENDBRANCH   7   9
ENDBRANCH   1   7
BRANCH   6  14
ATOM     14  C   UNL     1     -14.829   7.332  26.628  0.00  0.00    +0.000 C 
ATOM     15  O   UNL     1     -15.863   6.875  26.173  0.00  0.00    +0.000 OA
BRANCH  14  16
ATOM     16  O   UNL     1     -14.687   8.527  27.261  0.00  0.00    +0.000 OA
BRANCH  16  17
ATOM     17  C   UNL     1     -15.568   9.575  26.830  0.00  0.00    +0.000 C 
BRANCH  17  18
ATOM     18  C   UNL     1     -14.992  10.429  25.709  0.00  0.00    +0.000 C 
BRANCH  18  19
ATOM     19  C   UNL     1     -15.351  11.909  25.843  0.00  0.00    +0.000 C 
ATOM     20  C   UNL     1     -16.428  12.108  26.898  0.00  0.00    +0.000 C 
ENDBRANCH  18  19
ENDBRANCH  17  18
ENDBRANCH  16  17
ENDBRANCH  14  16
ENDBRANCH   6  14
TORSDOF 10
ENDMDL
MODEL 2
REMARK VINA RESULT:    -5.264      0.367      7.238
REMARK INTER + INTRA:          -9.122
REMARK INTER:                  -8.386
REMARK INTRA:                  -0.736
REMARK UNBOUND:                -0.781
REMARK  Name = C:\Users\sofiya chavarekar\OneDrive\Assignment- Module 1\PROJECT(AI-based drug target identification for SDH-related rare disorders)\Data\Ligands\PDB\Ligand_0094.pdb
REMARK  12 active torsions:
REMARK  status: ('A' for Active; 'I' for Inactive)
REMARK    1  A    between atoms: C_1  and  C_2
REMARK    2  A    between atoms: C_2  and  C_3
REMARK    3  A    between atoms: C_3  and  C_4
REMARK    4  A    between atoms: C_4  and  O_5
REMARK    5  A    between atoms: O_5  and  C_6
REMARK    6  A    between atoms: C_6  and  C_8
REMARK    7  A    between atoms: C_13  and  C_14
REMARK    8  A    between atoms: C_14  and  O_16
REMARK    9  A    between atoms: O_16  and  C_17
REMARK   10  A    between atoms: C_17  and  C_18
REMARK   11  A    between atoms: C_18  and  C_19
REMARK   12  A    between atoms: C_19  and  C_20
REMARK                            x       y       z     vdW  Elec       q    Type
REMARK                         _______ _______ _______ _____ _____    ______ ____
ROOT
ATOM      1  C   UNL     1     -13.593   6.574  26.419  0.00  0.00    +0.000 A 
ATOM      2  C   UNL     1     -12.705   7.297  25.598  0.00  0.00    +0.000 A 
ATOM      3  C   UNL     1     -11.462   6.772  25.259  0.00  0.00    +0.000 A 
ATOM      4  C   UNL     1     -11.097   5.514  25.715  0.00  0.00    +0.000 A 
ATOM      5  C   UNL     1     -11.981   4.779  26.507  0.00  0.00    +0.000 A 
ATOM      6  C   UNL     1     -13.243   5.294  26.863  0.00  0.00    +0.000 A 
ENDROOT
BRANCH   1   7
ATOM      7  C   UNL     1     -14.905   7.198  26.702  0.00  0.00    +0.000 C 
ATOM      8  O   UNL     1     -15.979   6.726  26.379  0.00  0.00    +0.000 OA
BRANCH   7   9
ATOM      9  O   UNL     1     -14.667   8.430  27.224  0.00  0.00    +0.000 OA
BRANCH   9  10
ATOM     10  C   UNL     1     -15.601   9.462  26.883  0.00  0.00    +0.000 C 
BRANCH  10  11
ATOM     11  C   UNL     1     -15.179  10.233  25.638  0.00  0.00    +0.000 C 
BRANCH  11  13
ATOM     12  C   UNL     1     -16.321  12.156  26.783  0.00  0.00    +0.000 C 
ATOM     13  C   UNL     1     -15.183  11.747  25.861  0.00  0.00    +0.000 C 
ENDBRANCH  11  13
ENDBRANCH  10  11
ENDBRANCH   9  10
ENDBRANCH   7   9
ENDBRANCH   1   7
BRANCH   6  14
ATOM     14  C   UNL     1     -14.068   4.536  27.840  0.00  0.00    +0.000 C 
ATOM     15  O   UNL     1     -14.290   4.913  28.977  0.00  0.00    +0.000 OA
BRANCH  14  16
ATOM     16  O   UNL     1     -14.358   3.311  27.325  0.00  0.00    +0.000 OA
BRANCH  16  17
ATOM     17  C   UNL     1     -14.319   2.216  28.253  0.00  0.00    +0.000 C 
BRANCH  17  18
ATOM     18  C   UNL     1     -12.935   1.601  28.410  0.00  0.00    +0.000 C 
BRANCH  18  19
ATOM     19  C   UNL     1     -12.979   0.121  28.789  0.00  0.00    +0.000 C 
ATOM     20  C   UNL     1     -14.416  -0.363  28.902  0.00  0.00    +0.000 C 
ENDBRANCH  18  19
ENDBRANCH  17  18
ENDBRANCH  16  17
ENDBRANCH  14  16
ENDBRANCH   6  14
TORSDOF 10
ENDMDL
MODEL 3
REMARK VINA RESULT:    -5.111      1.781      6.786
REMARK INTER + INTRA:          -8.879
REMARK INTER:                  -8.212
REMARK INTRA:                  -0.667
REMARK UNBOUND:                -0.781
REMARK  Name = C:\Users\sofiya chavarekar\OneDrive\Assignment- Module 1\PROJECT(AI-based drug target identification for SDH-related rare disorders)\Data\Ligands\PDB\Ligand_0094.pdb
REMARK  12 active torsions:
REMARK  status: ('A' for Active; 'I' for Inactive)
REMARK    1  A    between atoms: C_1  and  C_2
REMARK    2  A    between atoms: C_2  and  C_3
REMARK    3  A    between atoms: C_3  and  C_4
REMARK    4  A    between atoms: C_4  and  O_5
REMARK    5  A    between atoms: O_5  and  C_6
REMARK    6  A    between atoms: C_6  and  C_8
REMARK    7  A    between atoms: C_13  and  C_14
REMARK    8  A    between atoms: C_14  and  O_16
REMARK    9  A    between atoms: O_16  and  C_17
REMARK   10  A    between atoms: C_17  and  C_18
REMARK   11  A    between atoms: C_18  and  C_19
REMARK   12  A    between atoms: C_19  and  C_20
REMARK                            x       y       z     vdW  Elec       q    Type
REMARK                         _______ _______ _______ _____ _____    ______ ____
ROOT
ATOM      1  C   UNL     1     -13.273   6.699  26.177  0.00  0.00    +0.000 A 
ATOM      2  C   UNL     1     -12.324   7.295  25.324  0.00  0.00    +0.000 A 
ATOM      3  C   UNL     1     -11.110   6.669  25.062  0.00  0.00    +0.000 A 
ATOM      4  C   UNL     1     -10.835   5.433  25.627  0.00  0.00    +0.000 A 
ATOM      5  C   UNL     1     -11.780   4.821  26.453  0.00  0.00    +0.000 A 
ATOM      6  C   UNL     1     -13.015   5.441  26.733  0.00  0.00    +0.000 A 
ENDROOT
BRANCH   1   7
ATOM      7  C   UNL     1     -14.549   7.423  26.374  0.00  0.00    +0.000 C 
ATOM      8  O   UNL     1     -15.632   7.035  25.979  0.00  0.00    +0.000 OA
BRANCH   7   9
ATOM      9  O   UNL     1     -14.251   8.634  26.916  0.00  0.00    +0.000 OA
BRANCH   9  10
ATOM     10  C   UNL     1     -15.275   9.635  26.849  0.00  0.00    +0.000 C 
BRANCH  10  11
ATOM     11  C   UNL     1     -15.025  10.643  25.735  0.00  0.00    +0.000 C 
BRANCH  11  13
ATOM     12  C   UNL     1     -16.617  11.903  27.215  0.00  0.00    +0.000 C 
ATOM     13  C   UNL     1     -15.702  11.988  26.003  0.00  0.00    +0.000 C 
ENDBRANCH  11  13
ENDBRANCH  10  11
ENDBRANCH   9  10
ENDBRANCH   7   9
ENDBRANCH   1   7
BRANCH   6  14
ATOM     14  C   UNL     1     -13.906   4.818  27.746  0.00  0.00    +0.000 C 
ATOM     15  O   UNL     1     -14.060   5.254  28.873  0.00  0.00    +0.000 OA
BRANCH  14  16
ATOM     16  O   UNL     1     -14.350   3.621  27.277  0.00  0.00    +0.000 OA
BRANCH  16  17
ATOM     17  C   UNL     1     -15.291   3.683  26.195  0.00  0.00    +0.000 C 
BRANCH  17  18
ATOM     18  C   UNL     1     -16.633   3.042  26.519  0.00  0.00    +0.000 C 
BRANCH  18  19
ATOM     19  C   UNL     1     -16.618   1.521  26.377  0.00  0.00    +0.000 C 
ATOM     20  C   UNL     1     -17.585   1.073  25.291  0.00  0.00    +0.000 C 
ENDBRANCH  18  19
ENDBRANCH  17  18
ENDBRANCH  16  17
ENDBRANCH  14  16
ENDBRANCH   6  14
TORSDOF 10
ENDMDL
MODEL 4
REMARK VINA RESULT:    -4.900      3.198      6.286
REMARK INTER + INTRA:          -8.546
REMARK INTER:                  -7.498
REMARK INTRA:                  -1.048
REMARK UNBOUND:                -0.781
REMARK  Name = C:\Users\sofiya chavarekar\OneDrive\Assignment- Module 1\PROJECT(AI-based drug target identification for SDH-related rare disorders)\Data\Ligands\PDB\Ligand_0094.pdb
REMARK  12 active torsions:
REMARK  status: ('A' for Active; 'I' for Inactive)
REMARK    1  A    between atoms: C_1  and  C_2
REMARK    2  A    between atoms: C_2  and  C_3
REMARK    3  A    between atoms: C_3  and  C_4
REMARK    4  A    between atoms: C_4  and  O_5
REMARK    5  A    between atoms: O_5  and  C_6
REMARK    6  A    between atoms: C_6  and  C_8
REMARK    7  A    between atoms: C_13  and  C_14
REMARK    8  A    between atoms: C_14  and  O_16
REMARK    9  A    between atoms: O_16  and  C_17
REMARK   10  A    between atoms: C_17  and  C_18
REMARK   11  A    between atoms: C_18  and  C_19
REMARK   12  A    between atoms: C_19  and  C_20
REMARK                            x       y       z     vdW  Elec       q    Type
REMARK                         _______ _______ _______ _____ _____    ______ ____
ROOT
ATOM      1  C   UNL     1     -15.270   0.394  29.494  0.00  0.00    +0.000 A 
ATOM      2  C   UNL     1     -14.890  -0.722  30.266  0.00  0.00    +0.000 A 
ATOM      3  C   UNL     1     -13.577  -1.182  30.253  0.00  0.00    +0.000 A 
ATOM      4  C   UNL     1     -12.623  -0.524  29.491  0.00  0.00    +0.000 A 
ATOM      5  C   UNL     1     -12.984   0.600  28.744  0.00  0.00    +0.000 A 
ATOM      6  C   UNL     1     -14.309   1.079  28.742  0.00  0.00    +0.000 A 
ENDROOT
BRANCH   1   7
ATOM      7  C   UNL     1     -16.681   0.829  29.593  0.00  0.00    +0.000 C 
ATOM      8  O   UNL     1     -17.573   0.456  28.855  0.00  0.00    +0.000 OA
BRANCH   7   9
ATOM      9  O   UNL     1     -16.740   1.812  30.530  0.00  0.00    +0.000 OA
BRANCH   9  10
ATOM     10  C   UNL     1     -17.529   1.539  31.696  0.00  0.00    +0.000 C 
BRANCH  10  11
ATOM     11  C   UNL     1     -16.720   1.661  32.981  0.00  0.00    +0.000 C 
BRANCH  11  13
ATOM     12  C   UNL     1     -17.313  -0.773  33.174  0.00  0.00    +0.000 C 
ATOM     13  C   UNL     1     -16.296   0.299  33.534  0.00  0.00    +0.000 C 
ENDBRANCH  11  13
ENDBRANCH  10  11
ENDBRANCH   9  10
ENDBRANCH   7   9
ENDBRANCH   1   7
BRANCH   6  14
ATOM     14  C   UNL     1     -14.664   2.173  27.802  0.00  0.00    +0.000 C 
ATOM     15  O   UNL     1     -15.373   2.023  26.822  0.00  0.00    +0.000 OA
BRANCH  14  16
ATOM     16  O   UNL     1     -13.935   3.280  28.108  0.00  0.00    +0.000 OA
BRANCH  16  17
ATOM     17  C   UNL     1     -13.474   4.055  26.991  0.00  0.00    +0.000 C 
BRANCH  17  18
ATOM     18  C   UNL     1     -13.480   5.555  27.249  0.00  0.00    +0.000 C 
BRANCH  18  19
ATOM     19  C   UNL     1     -12.463   6.312  26.394  0.00  0.00    +0.000 C 
ATOM     20  C   UNL     1     -11.249   5.442  26.107  0.00  0.00    +0.000 C 
ENDBRANCH  18  19
ENDBRANCH  17  18
ENDBRANCH  16  17
ENDBRANCH  14  16
ENDBRANCH   6  14
TORSDOF 10
ENDMDL
MODEL 5
REMARK VINA RESULT:    -4.875     10.362     13.414
REMARK INTER + INTRA:          -8.506
REMARK INTER:                  -7.394
REMARK INTRA:                  -1.112
REMARK UNBOUND:                -0.781
REMARK  Name = C:\Users\sofiya chavarekar\OneDrive\Assignment- Module 1\PROJECT(AI-based drug target identification for SDH-related rare disorders)\Data\Ligands\PDB\Ligand_0094.pdb
REMARK  12 active torsions:
REMARK  status: ('A' for Active; 'I' for Inactive)
REMARK    1  A    between atoms: C_1  and  C_2
REMARK    2  A    between atoms: C_2  and  C_3
REMARK    3  A    between atoms: C_3  and  C_4
REMARK    4  A    between atoms: C_4  and  O_5
REMARK    5  A    between atoms: O_5  and  C_6
REMARK    6  A    between atoms: C_6  and  C_8
REMARK    7  A    between atoms: C_13  and  C_14
REMARK    8  A    between atoms: C_14  and  O_16
REMARK    9  A    between atoms: O_16  and  C_17
REMARK   10  A    between atoms: C_17  and  C_18
REMARK   11  A    between atoms: C_18  and  C_19
REMARK   12  A    between atoms: C_19  and  C_20
REMARK                            x       y       z     vdW  Elec       q    Type
REMARK                         _______ _______ _______ _____ _____    ______ ____
ROOT
ATOM      1  C   UNL     1     -19.703  -0.643  22.016  0.00  0.00    +0.000 A 
ATOM      2  C   UNL     1     -18.876  -0.182  23.059  0.00  0.00    +0.000 A 
ATOM      3  C   UNL     1     -17.942  -1.025  23.653  0.00  0.00    +0.000 A 
ATOM      4  C   UNL     1     -17.805  -2.329  23.202  0.00  0.00    +0.000 A 
ATOM      5  C   UNL     1     -18.601  -2.788  22.150  0.00  0.00    +0.000 A 
ATOM      6  C   UNL     1     -19.554  -1.950  21.538  0.00  0.00    +0.000 A 
ENDROOT
BRANCH   1   7
ATOM      7  C   UNL     1     -20.646   0.332  21.425  0.00  0.00    +0.000 C 
ATOM      8  O   UNL     1     -21.748   0.588  21.873  0.00  0.00    +0.000 OA
BRANCH   7   9
ATOM      9  O   UNL     1     -20.119   0.743  20.241  0.00  0.00    +0.000 OA
BRANCH   9  10
ATOM     10  C   UNL     1     -21.050   1.008  19.184  0.00  0.00    +0.000 C 
BRANCH  10  11
ATOM     11  C   UNL     1     -21.028   2.467  18.747  0.00  0.00    +0.000 C 
BRANCH  11  13
ATOM     12  C   UNL     1     -23.423   1.841  18.316  0.00  0.00    +0.000 C 
ATOM     13  C   UNL     1     -22.416   2.980  18.359  0.00  0.00    +0.000 C 
ENDBRANCH  11  13
ENDBRANCH  10  11
ENDBRANCH   9  10
ENDBRANCH   7   9
ENDBRANCH   1   7
BRANCH   6  14
ATOM     14  C   UNL     1     -20.481  -2.544  20.540  0.00  0.00    +0.000 C 
ATOM     15  O   UNL     1     -20.307  -2.491  19.335  0.00  0.00    +0.000 OA
BRANCH  14  16
ATOM     16  O   UNL     1     -21.607  -2.971  21.173  0.00  0.00    +0.000 OA
BRANCH  16  17
ATOM     17  C   UNL     1     -22.017  -4.315  20.885  0.00  0.00    +0.000 C 
BRANCH  17  18
ATOM     18  C   UNL     1     -21.400  -5.351  21.814  0.00  0.00    +0.000 C 
BRANCH  18  19
ATOM     19  C   UNL     1     -20.132  -5.985  21.244  0.00  0.00    +0.000 C 
ATOM     20  C   UNL     1     -19.230  -6.483  22.363  0.00  0.00    +0.000 C 
ENDBRANCH  18  19
ENDBRANCH  17  18
ENDBRANCH  16  17
ENDBRANCH  14  16
ENDBRANCH   6  14
TORSDOF 10
ENDMDL
MODEL 6
REMARK VINA RESULT:    -4.853      7.241     10.113
REMARK INTER + INTRA:          -8.471
REMARK INTER:                  -7.436
REMARK INTRA:                  -1.035
REMARK UNBOUND:                -0.781
REMARK  Name = C:\Users\sofiya chavarekar\OneDrive\Assignment- Module 1\PROJECT(AI-based drug target identification for SDH-related rare disorders)\Data\Ligands\PDB\Ligand_0094.pdb
REMARK  12 active torsions:
REMARK  status: ('A' for Active; 'I' for Inactive)
REMARK    1  A    between atoms: C_1  and  C_2
REMARK    2  A    between atoms: C_2  and  C_3
REMARK    3  A    between atoms: C_3  and  C_4
REMARK    4  A    between atoms: C_4  and  O_5
REMARK    5  A    between atoms: O_5  and  C_6
REMARK    6  A    between atoms: C_6  and  C_8
REMARK    7  A    between atoms: C_13  and  C_14
REMARK    8  A    between atoms: C_14  and  O_16
REMARK    9  A    between atoms: O_16  and  C_17
REMARK   10  A    between atoms: C_17  and  C_18
REMARK   11  A    between atoms: C_18  and  C_19
REMARK   12  A    between atoms: C_19  and  C_20
REMARK                            x       y       z     vdW  Elec       q    Type
REMARK                         _______ _______ _______ _____ _____    ______ ____
ROOT
ATOM      1  C   UNL     1     -18.504  -0.759  31.697  0.00  0.00    +0.000 A 
ATOM      2  C   UNL     1     -19.697  -1.487  31.519  0.00  0.00    +0.000 A 
ATOM      3  C   UNL     1     -20.175  -1.771  30.244  0.00  0.00    +0.000 A 
ATOM      4  C   UNL     1     -19.460  -1.352  29.131  0.00  0.00    +0.000 A 
ATOM      5  C   UNL     1     -18.263  -0.653  29.297  0.00  0.00    +0.000 A 
ATOM      6  C   UNL     1     -17.764  -0.354  30.580  0.00  0.00    +0.000 A 
ENDROOT
BRANCH   1   7
ATOM      7  C   UNL     1     -18.058  -0.531  33.089  0.00  0.00    +0.000 C 
ATOM      8  O   UNL     1     -17.107  -1.083  33.610  0.00  0.00    +0.000 OA
BRANCH   7   9
ATOM      9  O   UNL     1     -18.984   0.262  33.690  0.00  0.00    +0.000 OA
BRANCH   9  10
ATOM     10  C   UNL     1     -18.750   1.675  33.637  0.00  0.00    +0.000 C 
BRANCH  10  11
ATOM     11  C   UNL     1     -19.954   2.478  34.113  0.00  0.00    +0.000 C 
BRANCH  11  13
ATOM     12  C   UNL     1     -21.523   1.890  32.241  0.00  0.00    +0.000 C 
ATOM     13  C   UNL     1     -21.281   1.816  33.740  0.00  0.00    +0.000 C 
ENDBRANCH  11  13
ENDBRANCH  10  11
ENDBRANCH   9  10
ENDBRANCH   7   9
ENDBRANCH   1   7
BRANCH   6  14
ATOM     14  C   UNL     1     -16.576   0.532  30.689  0.00  0.00    +0.000 C 
ATOM     15  O   UNL     1     -16.640   1.727  30.919  0.00  0.00    +0.000 OA
BRANCH  14  16
ATOM     16  O   UNL     1     -15.466  -0.159  30.314  0.00  0.00    +0.000 OA
BRANCH  16  17
ATOM     17  C   UNL     1     -14.763   0.356  29.174  0.00  0.00    +0.000 C 
BRANCH  17  18
ATOM     18  C   UNL     1     -13.934  -0.693  28.447  0.00  0.00    +0.000 C 
BRANCH  18  19
ATOM     19  C   UNL     1     -12.607  -0.993  29.143  0.00  0.00    +0.000 C 
ATOM     20  C   UNL     1     -11.467  -1.024  28.137  0.00  0.00    +0.000 C 
ENDBRANCH  18  19
ENDBRANCH  17  18
ENDBRANCH  16  17
ENDBRANCH  14  16
ENDBRANCH   6  14
TORSDOF 10
ENDMDL
MODEL 7
REMARK VINA RESULT:    -4.851      7.307      9.867
REMARK INTER + INTRA:          -8.467
REMARK INTER:                  -6.694
REMARK INTRA:                  -1.773
REMARK UNBOUND:                -0.781
REMARK  Name = C:\Users\sofiya chavarekar\OneDrive\Assignment- Module 1\PROJECT(AI-based drug target identification for SDH-related rare disorders)\Data\Ligands\PDB\Ligand_0094.pdb
REMARK  12 active torsions:
REMARK  status: ('A' for Active; 'I' for Inactive)
REMARK    1  A    between atoms: C_1  and  C_2
REMARK    2  A    between atoms: C_2  and  C_3
REMARK    3  A    between atoms: C_3  and  C_4
REMARK    4  A    between atoms: C_4  and  O_5
REMARK    5  A    between atoms: O_5  and  C_6
REMARK    6  A    between atoms: C_6  and  C_8
REMARK    7  A    between atoms: C_13  and  C_14
REMARK    8  A    between atoms: C_14  and  O_16
REMARK    9  A    between atoms: O_16  and  C_17
REMARK   10  A    between atoms: C_17  and  C_18
REMARK   11  A    between atoms: C_18  and  C_19
REMARK   12  A    between atoms: C_19  and  C_20
REMARK                            x       y       z     vdW  Elec       q    Type
REMARK                         _______ _______ _______ _____ _____    ______ ____
ROOT
ATOM      1  C   UNL     1     -17.658   0.931  32.598  0.00  0.00    +0.000 A 
ATOM      2  C   UNL     1     -18.048   2.118  33.249  0.00  0.00    +0.000 A 
ATOM      3  C   UNL     1     -17.798   3.360  32.674  0.00  0.00    +0.000 A 
ATOM      4  C   UNL     1     -17.178   3.434  31.435  0.00  0.00    +0.000 A 
ATOM      5  C   UNL     1     -16.812   2.263  30.770  0.00  0.00    +0.000 A 
ATOM      6  C   UNL     1     -17.054   0.996  31.337  0.00  0.00    +0.000 A 
ENDROOT
BRANCH   1   7
ATOM      7  C   UNL     1     -17.991  -0.345  33.270  0.00  0.00    +0.000 C 
ATOM      8  O   UNL     1     -17.171  -1.153  33.666  0.00  0.00    +0.000 OA
BRANCH   7   9
ATOM      9  O   UNL     1     -19.340  -0.498  33.210  0.00  0.00    +0.000 OA
BRANCH   9  10
ATOM     10  C   UNL     1     -19.838  -1.401  32.214  0.00  0.00    +0.000 C 
BRANCH  10  11
ATOM     11  C   UNL     1     -20.993  -0.806  31.419  0.00  0.00    +0.000 C 
BRANCH  11  13
ATOM     12  C   UNL     1     -20.689   1.521  30.521  0.00  0.00    +0.000 C 
ATOM     13  C   UNL     1     -21.181   0.687  31.694  0.00  0.00    +0.000 C 
ENDBRANCH  11  13
ENDBRANCH  10  11
ENDBRANCH   9  10
ENDBRANCH   7   9
ENDBRANCH   1   7
BRANCH   6  14
ATOM     14  C   UNL     1     -16.495  -0.202  30.658  0.00  0.00    +0.000 C 
ATOM     15  O   UNL     1     -15.305  -0.461  30.610  0.00  0.00    +0.000 OA
BRANCH  14  16
ATOM     16  O   UNL     1     -17.485  -0.828  29.966  0.00  0.00    +0.000 OA
BRANCH  16  17
ATOM     17  C   UNL     1     -17.697  -0.370  28.623  0.00  0.00    +0.000 C 
BRANCH  17  18
ATOM     18  C   UNL     1     -19.041  -0.788  28.043  0.00  0.00    +0.000 C 
BRANCH  18  19
ATOM     19  C   UNL     1     -19.438  -2.214  28.423  0.00  0.00    +0.000 C 
ATOM     20  C   UNL     1     -20.153  -2.898  27.268  0.00  0.00    +0.000 C 
ENDBRANCH  18  19
ENDBRANCH  17  18
ENDBRANCH  16  17
ENDBRANCH  14  16
ENDBRANCH   6  14
TORSDOF 10
ENDMDL
MODEL 8
REMARK VINA RESULT:    -4.847      6.731      9.717
REMARK INTER + INTRA:          -8.462
REMARK INTER:                  -7.270
REMARK INTRA:                  -1.192
REMARK UNBOUND:                -0.781
REMARK  Name = C:\Users\sofiya chavarekar\OneDrive\Assignment- Module 1\PROJECT(AI-based drug target identification for SDH-related rare disorders)\Data\Ligands\PDB\Ligand_0094.pdb
REMARK  12 active torsions:
REMARK  status: ('A' for Active; 'I' for Inactive)
REMARK    1  A    between atoms: C_1  and  C_2
REMARK    2  A    between atoms: C_2  and  C_3
REMARK    3  A    between atoms: C_3  and  C_4
REMARK    4  A    between atoms: C_4  and  O_5
REMARK    5  A    between atoms: O_5  and  C_6
REMARK    6  A    between atoms: C_6  and  C_8
REMARK    7  A    between atoms: C_13  and  C_14
REMARK    8  A    between atoms: C_14  and  O_16
REMARK    9  A    between atoms: O_16  and  C_17
REMARK   10  A    between atoms: C_17  and  C_18
REMARK   11  A    between atoms: C_18  and  C_19
REMARK   12  A    between atoms: C_19  and  C_20
REMARK                            x       y       z     vdW  Elec       q    Type
REMARK                         _______ _______ _______ _____ _____    ______ ____
ROOT
ATOM      1  C   UNL     1     -18.462  -0.889  31.929  0.00  0.00    +0.000 A 
ATOM      2  C   UNL     1     -19.777  -1.394  31.905  0.00  0.00    +0.000 A 
ATOM      3  C   UNL     1     -20.361  -1.803  30.710  0.00  0.00    +0.000 A 
ATOM      4  C   UNL     1     -19.636  -1.735  29.529  0.00  0.00    +0.000 A 
ATOM      5  C   UNL     1     -18.322  -1.261  29.547  0.00  0.00    +0.000 A 
ATOM      6  C   UNL     1     -17.715  -0.840  30.747  0.00  0.00    +0.000 A 
ENDROOT
BRANCH   1   7
ATOM      7  C   UNL     1     -17.913  -0.507  33.249  0.00  0.00    +0.000 C 
ATOM      8  O   UNL     1     -17.036  -1.113  33.835  0.00  0.00    +0.000 OA
BRANCH   7   9
ATOM      9  O   UNL     1     -18.670   0.516  33.725  0.00  0.00    +0.000 OA
BRANCH   9  10
ATOM     10  C   UNL     1     -18.326   1.832  33.272  0.00  0.00    +0.000 C 
BRANCH  10  11
ATOM     11  C   UNL     1     -16.914   2.233  33.683  0.00  0.00    +0.000 C 
BRANCH  11  13
ATOM     12  C   UNL     1     -16.301   3.748  35.591  0.00  0.00    +0.000 C 
ATOM     13  C   UNL     1     -16.838   3.681  34.169  0.00  0.00    +0.000 C 
ENDBRANCH  11  13
ENDBRANCH  10  11
ENDBRANCH   9  10
ENDBRANCH   7   9
ENDBRANCH   1   7
BRANCH   6  14
ATOM     14  C   UNL     1     -16.378  -0.194  30.674  0.00  0.00    +0.000 C 
ATOM     15  O   UNL     1     -15.339  -0.748  30.986  0.00  0.00    +0.000 OA
BRANCH  14  16
ATOM     16  O   UNL     1     -16.535   1.128  30.394  0.00  0.00    +0.000 OA
BRANCH  16  17
ATOM     17  C   UNL     1     -15.702   1.649  29.347  0.00  0.00    +0.000 C 
BRANCH  17  18
ATOM     18  C   UNL     1     -16.077   1.141  27.962  0.00  0.00    +0.000 C 
BRANCH  18  19
ATOM     19  C   UNL     1     -15.111   0.082  27.433  0.00  0.00    +0.000 C 
ATOM     20  C   UNL     1     -15.870  -1.043  26.745  0.00  0.00    +0.000 C 
ENDBRANCH  18  19
ENDBRANCH  17  18
ENDBRANCH  16  17
ENDBRANCH  14  16
ENDBRANCH   6  14
TORSDOF 10
ENDMDL
MODEL 9
REMARK VINA RESULT:    -4.717      1.656      6.780
REMARK INTER + INTRA:          -8.256
REMARK INTER:                  -7.163
REMARK INTRA:                  -1.092
REMARK UNBOUND:                -0.781
REMARK  Name = C:\Users\sofiya chavarekar\OneDrive\Assignment- Module 1\PROJECT(AI-based drug target identification for SDH-related rare disorders)\Data\Ligands\PDB\Ligand_0094.pdb
REMARK  12 active torsions:
REMARK  status: ('A' for Active; 'I' for Inactive)
REMARK    1  A    between atoms: C_1  and  C_2
REMARK    2  A    between atoms: C_2  and  C_3
REMARK    3  A    between atoms: C_3  and  C_4
REMARK    4  A    between atoms: C_4  and  O_5
REMARK    5  A    between atoms: O_5  and  C_6
REMARK    6  A    between atoms: C_6  and  C_8
REMARK    7  A    between atoms: C_13  and  C_14
REMARK    8  A    between atoms: C_14  and  O_16
REMARK    9  A    between atoms: O_16  and  C_17
REMARK   10  A    between atoms: C_17  and  C_18
REMARK   11  A    between atoms: C_18  and  C_19
REMARK   12  A    between atoms: C_19  and  C_20
REMARK                            x       y       z     vdW  Elec       q    Type
REMARK                         _______ _______ _______ _____ _____    ______ ____
ROOT
ATOM      1  C   UNL     1     -14.421   6.972  26.614  0.00  0.00    +0.000 A 
ATOM      2  C   UNL     1     -13.357   7.516  25.868  0.00  0.00    +0.000 A 
ATOM      3  C   UNL     1     -12.201   6.779  25.635  0.00  0.00    +0.000 A 
ATOM      4  C   UNL     1     -12.099   5.484  26.122  0.00  0.00    +0.000 A 
ATOM      5  C   UNL     1     -13.160   4.926  26.839  0.00  0.00    +0.000 A 
ATOM      6  C   UNL     1     -14.338   5.658  27.087  0.00  0.00    +0.000 A 
ENDROOT
BRANCH   1   7
ATOM      7  C   UNL     1     -15.623   7.819  26.785  0.00  0.00    +0.000 C 
ATOM      8  O   UNL     1     -16.602   7.785  26.063  0.00  0.00    +0.000 OA
BRANCH   7   9
ATOM      9  O   UNL     1     -15.352   8.716  27.769  0.00  0.00    +0.000 OA
BRANCH   9  10
ATOM     10  C   UNL     1     -15.583  10.097  27.458  0.00  0.00    +0.000 C 
BRANCH  10  11
ATOM     11  C   UNL     1     -16.797  10.658  28.187  0.00  0.00    +0.000 C 
BRANCH  11  13
ATOM     12  C   UNL     1     -15.888  10.950  30.511  0.00  0.00    +0.000 C 
ATOM     13  C   UNL     1     -16.874  10.187  29.640  0.00  0.00    +0.000 C 
ENDBRANCH  11  13
ENDBRANCH  10  11
ENDBRANCH   9  10
ENDBRANCH   7   9
ENDBRANCH   1   7
BRANCH   6  14
ATOM     14  C   UNL     1     -15.358   5.071  27.994  0.00  0.00    +0.000 C 
ATOM     15  O   UNL     1     -15.293   5.116  29.209  0.00  0.00    +0.000 OA
BRANCH  14  16
ATOM     16  O   UNL     1     -16.240   4.339  27.260  0.00  0.00    +0.000 OA
BRANCH  16  17
ATOM     17  C   UNL     1     -16.439   2.984  27.689  0.00  0.00    +0.000 C 
BRANCH  17  18
ATOM     18  C   UNL     1     -15.436   2.005  27.095  0.00  0.00    +0.000 C 
BRANCH  18  19
ATOM     19  C   UNL     1     -14.467   1.440  28.133  0.00  0.00    +0.000 C 
ATOM     20  C   UNL     1     -15.153   0.390  28.994  0.00  0.00    +0.000 C 
ENDBRANCH  18  19
ENDBRANCH  17  18
ENDBRANCH  16  17
ENDBRANCH  14  16
ENDBRANCH   6  14
TORSDOF 10
ENDMDL
