MODEL 1
REMARK VINA RESULT:    -4.014      0.000      0.000
REMARK INTER + INTRA:          -4.611
REMARK INTER:                  -4.600
REMARK INTRA:                  -0.011
REMARK UNBOUND:                -0.011
REMARK  Name = C:\Users\sofiya chavarekar\OneDrive\Assignment- Module 1\PROJECT(AI-based drug target identification for SDH-related rare disorders)\Data\Ligands\PDB\Ligand_0059.pdb
REMARK  6 active torsions:
REMARK  status: ('A' for Active; 'I' for Inactive)
REMARK    1  A    between atoms: C_1  and  C_2
REMARK    2  A    between atoms: C_2  and  C_3
REMARK    3  A    between atoms: C_2  and  C_4
REMARK    4  A    between atoms: C_4  and  C_5
REMARK    5  A    between atoms: C_4  and  C_6
REMARK    6  A    between atoms: C_6  and  O_7
REMARK                            x       y       z     vdW  Elec       q    Type
REMARK                         _______ _______ _______ _____ _____    ______ ____
ROOT
ATOM      1  C   UNL     1      -9.762   4.665  25.831  0.00  0.00    +0.000 C 
ATOM      2  C   UNL     1      -9.977   3.210  26.273  0.00  0.00    +0.000 C 
ENDROOT
BRANCH   1   4
ATOM      3  C   UNL     1     -11.255   6.639  25.074  0.00  0.00    +0.000 C 
ATOM      4  C   UNL     1     -10.961   5.602  26.160  0.00  0.00    +0.000 C 
ATOM      5  C   UNL     1     -12.236   4.808  26.473  0.00  0.00    +0.000 C 
ENDBRANCH   1   4
BRANCH   1   6
ATOM      6  C   UNL     1      -9.368   4.675  24.342  0.00  0.00    +0.000 C 
BRANCH   6   7
ATOM      7  O   UNL     1      -8.496   3.599  24.032  0.00  0.00    +0.000 OA
ATOM      8  H   UNL     1      -8.557   2.951  24.755  0.00  0.00    +0.000 HD
ENDBRANCH   6   7
ENDBRANCH   1   6
TORSDOF 3
ENDMDL
MODEL 2
REMARK VINA RESULT:    -3.753      3.146      4.238
REMARK INTER + INTRA:          -4.312
REMARK INTER:                  -4.307
REMARK INTRA:                  -0.005
REMARK UNBOUND:                -0.011
REMARK  Name = C:\Users\sofiya chavarekar\OneDrive\Assignment- Module 1\PROJECT(AI-based drug target identification for SDH-related rare disorders)\Data\Ligands\PDB\Ligand_0059.pdb
REMARK  6 active torsions:
REMARK  status: ('A' for Active; 'I' for Inactive)
REMARK    1  A    between atoms: C_1  and  C_2
REMARK    2  A    between atoms: C_2  and  C_3
REMARK    3  A    between atoms: C_2  and  C_4
REMARK    4  A    between atoms: C_4  and  C_5
REMARK    5  A    between atoms: C_4  and  C_6
REMARK    6  A    between atoms: C_6  and  O_7
REMARK                            x       y       z     vdW  Elec       q    Type
REMARK                         _______ _______ _______ _____ _____    ______ ____
ROOT
ATOM      1  C   UNL     1     -12.708   6.155  25.761  0.00  0.00    +0.000 C 
ATOM      2  C   UNL     1     -13.136   5.082  26.771  0.00  0.00    +0.000 C 
ENDROOT
BRANCH   1   4
ATOM      3  C   UNL     1     -10.393   4.997  25.822  0.00  0.00    +0.000 C 
ATOM      4  C   UNL     1     -11.164   6.304  25.624  0.00  0.00    +0.000 C 
ATOM      5  C   UNL     1     -10.770   6.936  24.282  0.00  0.00    +0.000 C 
ENDBRANCH   1   4
BRANCH   1   6
ATOM      6  C   UNL     1     -13.420   7.475  26.113  0.00  0.00    +0.000 C 
BRANCH   6   7
ATOM      7  O   UNL     1     -14.262   7.321  27.246  0.00  0.00    +0.000 OA
ATOM      8  H   UNL     1     -14.275   6.376  27.477  0.00  0.00    +0.000 HD
ENDBRANCH   6   7
ENDBRANCH   1   6
TORSDOF 3
ENDMDL
MODEL 3
REMARK VINA RESULT:    -3.676      2.859      4.034
REMARK INTER + INTRA:          -4.224
REMARK INTER:                  -4.193
REMARK INTRA:                  -0.031
REMARK UNBOUND:                -0.011
REMARK  Name = C:\Users\sofiya chavarekar\OneDrive\Assignment- Module 1\PROJECT(AI-based drug target identification for SDH-related rare disorders)\Data\Ligands\PDB\Ligand_0059.pdb
REMARK  6 active torsions:
REMARK  status: ('A' for Active; 'I' for Inactive)
REMARK    1  A    between atoms: C_1  and  C_2
REMARK    2  A    between atoms: C_2  and  C_3
REMARK    3  A    between atoms: C_2  and  C_4
REMARK    4  A    between atoms: C_4  and  C_5
REMARK    5  A    between atoms: C_4  and  C_6
REMARK    6  A    between atoms: C_6  and  O_7
REMARK                            x       y       z     vdW  Elec       q    Type
REMARK                         _______ _______ _______ _____ _____    ______ ____
ROOT
ATOM      1  C   UNL     1     -12.732   5.972  26.621  0.00  0.00    +0.000 C 
ATOM      2  C   UNL     1     -11.335   5.541  26.152  0.00  0.00    +0.000 C 
ENDROOT
BRANCH   1   4
ATOM      3  C   UNL     1     -13.557   3.598  27.242  0.00  0.00    +0.000 C 
ATOM      4  C   UNL     1     -13.820   4.873  26.438  0.00  0.00    +0.000 C 
ATOM      5  C   UNL     1     -15.224   5.403  26.758  0.00  0.00    +0.000 C 
ENDBRANCH   1   4
BRANCH   1   6
ATOM      6  C   UNL     1     -13.091   7.306  25.940  0.00  0.00    +0.000 C 
BRANCH   6   7
ATOM      7  O   UNL     1     -13.164   7.161  24.530  0.00  0.00    +0.000 OA
ATOM      8  H   UNL     1     -12.565   6.438  24.276  0.00  0.00    +0.000 HD
ENDBRANCH   6   7
ENDBRANCH   1   6
TORSDOF 3
ENDMDL
MODEL 4
REMARK VINA RESULT:    -3.324      3.036      4.336
REMARK INTER + INTRA:          -3.820
REMARK INTER:                  -3.763
REMARK INTRA:                  -0.058
REMARK UNBOUND:                -0.011
REMARK  Name = C:\Users\sofiya chavarekar\OneDrive\Assignment- Module 1\PROJECT(AI-based drug target identification for SDH-related rare disorders)\Data\Ligands\PDB\Ligand_0059.pdb
REMARK  6 active torsions:
REMARK  status: ('A' for Active; 'I' for Inactive)
REMARK    1  A    between atoms: C_1  and  C_2
REMARK    2  A    between atoms: C_2  and  C_3
REMARK    3  A    between atoms: C_2  and  C_4
REMARK    4  A    between atoms: C_4  and  C_5
REMARK    5  A    between atoms: C_4  and  C_6
REMARK    6  A    between atoms: C_6  and  O_7
REMARK                            x       y       z     vdW  Elec       q    Type
REMARK                         _______ _______ _______ _____ _____    ______ ____
ROOT
ATOM      1  C   UNL     1     -13.451   5.602  27.274  0.00  0.00    +0.000 C 
ATOM      2  C   UNL     1     -14.827   6.281  27.223  0.00  0.00    +0.000 C 
ENDROOT
BRANCH   1   4
ATOM      3  C   UNL     1     -11.173   5.441  26.054  0.00  0.00    +0.000 C 
ATOM      4  C   UNL     1     -12.364   6.327  26.427  0.00  0.00    +0.000 C 
ATOM      5  C   UNL     1     -12.955   6.956  25.159  0.00  0.00    +0.000 C 
ENDBRANCH   1   4
BRANCH   1   6
ATOM      6  C   UNL     1     -13.621   4.116  26.907  0.00  0.00    +0.000 C 
BRANCH   6   7
ATOM      7  O   UNL     1     -14.803   3.905  26.148  0.00  0.00    +0.000 OA
ATOM      8  H   UNL     1     -15.298   3.181  26.568  0.00  0.00    +0.000 HD
ENDBRANCH   6   7
ENDBRANCH   1   6
TORSDOF 3
ENDMDL
MODEL 5
REMARK VINA RESULT:    -3.307      3.680      4.975
REMARK INTER + INTRA:          -3.801
REMARK INTER:                  -3.763
REMARK INTRA:                  -0.038
REMARK UNBOUND:                -0.011
REMARK  Name = C:\Users\sofiya chavarekar\OneDrive\Assignment- Module 1\PROJECT(AI-based drug target identification for SDH-related rare disorders)\Data\Ligands\PDB\Ligand_0059.pdb
REMARK  6 active torsions:
REMARK  status: ('A' for Active; 'I' for Inactive)
REMARK    1  A    between atoms: C_1  and  C_2
REMARK    2  A    between atoms: C_2  and  C_3
REMARK    3  A    between atoms: C_2  and  C_4
REMARK    4  A    between atoms: C_4  and  C_5
REMARK    5  A    between atoms: C_4  and  C_6
REMARK    6  A    between atoms: C_6  and  O_7
REMARK                            x       y       z     vdW  Elec       q    Type
REMARK                         _______ _______ _______ _____ _____    ______ ____
ROOT
ATOM      1  C   UNL     1     -13.261   6.907  26.341  0.00  0.00    +0.000 C 
ATOM      2  C   UNL     1     -12.931   7.256  24.883  0.00  0.00    +0.000 C 
ENDROOT
BRANCH   1   4
ATOM      3  C   UNL     1     -13.337   4.379  26.894  0.00  0.00    +0.000 C 
ATOM      4  C   UNL     1     -12.498   5.658  26.873  0.00  0.00    +0.000 C 
ATOM      5  C   UNL     1     -11.199   5.409  26.094  0.00  0.00    +0.000 C 
ENDBRANCH   1   4
BRANCH   1   6
ATOM      6  C   UNL     1     -14.790   6.797  26.488  0.00  0.00    +0.000 C 
BRANCH   6   7
ATOM      7  O   UNL     1     -15.230   7.347  27.720  0.00  0.00    +0.000 OA
ATOM      8  H   UNL     1     -15.653   8.201  27.528  0.00  0.00    +0.000 HD
ENDBRANCH   6   7
ENDBRANCH   1   6
TORSDOF 3
ENDMDL
MODEL 6
REMARK VINA RESULT:    -3.299      4.202      5.534
REMARK INTER + INTRA:          -3.792
REMARK INTER:                  -3.764
REMARK INTRA:                  -0.028
REMARK UNBOUND:                -0.011
REMARK  Name = C:\Users\sofiya chavarekar\OneDrive\Assignment- Module 1\PROJECT(AI-based drug target identification for SDH-related rare disorders)\Data\Ligands\PDB\Ligand_0059.pdb
REMARK  6 active torsions:
REMARK  status: ('A' for Active; 'I' for Inactive)
REMARK    1  A    between atoms: C_1  and  C_2
REMARK    2  A    between atoms: C_2  and  C_3
REMARK    3  A    between atoms: C_2  and  C_4
REMARK    4  A    between atoms: C_4  and  C_5
REMARK    5  A    between atoms: C_4  and  C_6
REMARK    6  A    between atoms: C_6  and  O_7
REMARK                            x       y       z     vdW  Elec       q    Type
REMARK                         _______ _______ _______ _____ _____    ______ ____
ROOT
ATOM      1  C   UNL     1     -14.390   7.316  26.103  0.00  0.00    +0.000 C 
ATOM      2  C   UNL     1     -15.614   6.691  26.787  0.00  0.00    +0.000 C 
ENDROOT
BRANCH   1   4
ATOM      3  C   UNL     1     -13.188   5.179  26.933  0.00  0.00    +0.000 C 
ATOM      4  C   UNL     1     -13.043   6.635  26.488  0.00  0.00    +0.000 C 
ATOM      5  C   UNL     1     -12.014   6.728  25.354  0.00  0.00    +0.000 C 
ENDBRANCH   1   4
BRANCH   1   6
ATOM      6  C   UNL     1     -14.402   8.835  26.361  0.00  0.00    +0.000 C 
BRANCH   6   7
ATOM      7  O   UNL     1     -14.691   9.556  25.173  0.00  0.00    +0.000 OA
ATOM      8  H   UNL     1     -14.368   9.030  24.422  0.00  0.00    +0.000 HD
ENDBRANCH   6   7
ENDBRANCH   1   6
TORSDOF 3
ENDMDL
MODEL 7
REMARK VINA RESULT:    -3.187      3.553      4.715
REMARK INTER + INTRA:          -3.664
REMARK INTER:                  -3.657
REMARK INTRA:                  -0.007
REMARK UNBOUND:                -0.011
REMARK  Name = C:\Users\sofiya chavarekar\OneDrive\Assignment- Module 1\PROJECT(AI-based drug target identification for SDH-related rare disorders)\Data\Ligands\PDB\Ligand_0059.pdb
REMARK  6 active torsions:
REMARK  status: ('A' for Active; 'I' for Inactive)
REMARK    1  A    between atoms: C_1  and  C_2
REMARK    2  A    between atoms: C_2  and  C_3
REMARK    3  A    between atoms: C_2  and  C_4
REMARK    4  A    between atoms: C_4  and  C_5
REMARK    5  A    between atoms: C_4  and  C_6
REMARK    6  A    between atoms: C_6  and  O_7
REMARK                            x       y       z     vdW  Elec       q    Type
REMARK                         _______ _______ _______ _____ _____    ______ ____
ROOT
ATOM      1  C   UNL     1     -14.033   6.503  26.073  0.00  0.00    +0.000 C 
ATOM      2  C   UNL     1     -14.735   7.834  26.373  0.00  0.00    +0.000 C 
ENDROOT
BRANCH   1   4
ATOM      3  C   UNL     1     -15.106   5.548  28.227  0.00  0.00    +0.000 C 
ATOM      4  C   UNL     1     -13.873   5.585  27.321  0.00  0.00    +0.000 C 
ATOM      5  C   UNL     1     -13.478   4.155  26.931  0.00  0.00    +0.000 C 
ENDBRANCH   1   4
BRANCH   1   6
ATOM      6  C   UNL     1     -12.701   6.797  25.358  0.00  0.00    +0.000 C 
BRANCH   6   7
ATOM      7  O   UNL     1     -12.906   7.574  24.187  0.00  0.00    +0.000 OA
ATOM      8  H   UNL     1     -12.196   8.237  24.144  0.00  0.00    +0.000 HD
ENDBRANCH   6   7
ENDBRANCH   1   6
TORSDOF 3
ENDMDL
MODEL 8
REMARK VINA RESULT:    -3.082     12.279     13.092
REMARK INTER + INTRA:          -3.543
REMARK INTER:                  -3.515
REMARK INTRA:                  -0.028
REMARK UNBOUND:                -0.011
REMARK  Name = C:\Users\sofiya chavarekar\OneDrive\Assignment- Module 1\PROJECT(AI-based drug target identification for SDH-related rare disorders)\Data\Ligands\PDB\Ligand_0059.pdb
REMARK  6 active torsions:
REMARK  status: ('A' for Active; 'I' for Inactive)
REMARK    1  A    between atoms: C_1  and  C_2
REMARK    2  A    between atoms: C_2  and  C_3
REMARK    3  A    between atoms: C_2  and  C_4
REMARK    4  A    between atoms: C_4  and  C_5
REMARK    5  A    between atoms: C_4  and  C_6
REMARK    6  A    between atoms: C_6  and  O_7
REMARK                            x       y       z     vdW  Elec       q    Type
REMARK                         _______ _______ _______ _____ _____    ______ ____
ROOT
ATOM      1  C   UNL     1     -20.068  -3.897  22.020  0.00  0.00    +0.000 C 
ATOM      2  C   UNL     1     -19.890  -5.319  21.467  0.00  0.00    +0.000 C 
ENDROOT
BRANCH   1   4
ATOM      3  C   UNL     1     -20.493  -2.780  19.723  0.00  0.00    +0.000 C 
ATOM      4  C   UNL     1     -19.668  -2.780  21.012  0.00  0.00    +0.000 C 
ATOM      5  C   UNL     1     -19.718  -1.388  21.655  0.00  0.00    +0.000 C 
ENDBRANCH   1   4
BRANCH   1   6
ATOM      6  C   UNL     1     -19.330  -3.797  23.368  0.00  0.00    +0.000 C 
BRANCH   6   7
ATOM      7  O   UNL     1     -17.929  -3.957  23.201  0.00  0.00    +0.000 OA
ATOM      8  H   UNL     1     -17.536  -4.058  24.085  0.00  0.00    +0.000 HD
ENDBRANCH   6   7
ENDBRANCH   1   6
TORSDOF 3
ENDMDL
MODEL 9
REMARK VINA RESULT:    -3.073     12.315     13.105
REMARK INTER + INTRA:          -3.533
REMARK INTER:                  -3.500
REMARK INTRA:                  -0.033
REMARK UNBOUND:                -0.011
REMARK  Name = C:\Users\sofiya chavarekar\OneDrive\Assignment- Module 1\PROJECT(AI-based drug target identification for SDH-related rare disorders)\Data\Ligands\PDB\Ligand_0059.pdb
REMARK  6 active torsions:
REMARK  status: ('A' for Active; 'I' for Inactive)
REMARK    1  A    between atoms: C_1  and  C_2
REMARK    2  A    between atoms: C_2  and  C_3
REMARK    3  A    between atoms: C_2  and  C_4
REMARK    4  A    between atoms: C_4  and  C_5
REMARK    5  A    between atoms: C_4  and  C_6
REMARK    6  A    between atoms: C_6  and  O_7
REMARK                            x       y       z     vdW  Elec       q    Type
REMARK                         _______ _______ _______ _____ _____    ______ ____
ROOT
ATOM      1  C   UNL     1     -19.945  -3.049  20.572  0.00  0.00    +0.000 C 
ATOM      2  C   UNL     1     -20.668  -4.299  21.094  0.00  0.00    +0.000 C 
ENDROOT
BRANCH   1   4
ATOM      3  C   UNL     1     -19.390  -1.038  22.105  0.00  0.00    +0.000 C 
ATOM      4  C   UNL     1     -18.963  -2.418  21.603  0.00  0.00    +0.000 C 
ATOM      5  C   UNL     1     -18.717  -3.348  22.798  0.00  0.00    +0.000 C 
ENDBRANCH   1   4
BRANCH   1   6
ATOM      6  C   UNL     1     -20.996  -2.055  20.044  0.00  0.00    +0.000 C 
BRANCH   6   7
ATOM      7  O   UNL     1     -20.815  -1.802  18.658  0.00  0.00    +0.000 OA
ATOM      8  H   UNL     1     -21.197  -0.929  18.465  0.00  0.00    +0.000 HD
ENDBRANCH   6   7
ENDBRANCH   1   6
TORSDOF 3
ENDMDL
