MODEL 1
REMARK VINA RESULT:    -3.733      0.000      0.000
REMARK INTER + INTRA:          -4.325
REMARK INTER:                  -4.170
REMARK INTRA:                  -0.155
REMARK UNBOUND:                -0.155
REMARK  Name = C:\Users\sofiya chavarekar\OneDrive\Assignment- Module 1\PROJECT(AI-based drug target identification for SDH-related rare disorders)\Data\Ligands\PDB\Ligand_0002.pdb
REMARK  6 active torsions:
REMARK  status: ('A' for Active; 'I' for Inactive)
REMARK    1  A    between atoms: C_1  and  C_2
REMARK    2  A    between atoms: C_2  and  C_3
REMARK    3  A    between atoms: C_2  and  C_4
REMARK    4  A    between atoms: C_4  and  C_5
REMARK    5  A    between atoms: C_5  and  C_6
REMARK    6  A    between atoms: C_5  and  C_7
REMARK                            x       y       z     vdW  Elec       q    Type
REMARK                         _______ _______ _______ _____ _____    ______ ____
ROOT
ATOM      1  C   UNL     1     -12.384   5.989  26.816  0.00  0.00    +0.000 C 
ENDROOT
BRANCH   1   3
ATOM      2  C   UNL     1     -14.517   4.790  26.099  0.00  0.00    +0.000 C 
ATOM      3  C   UNL     1     -13.623   6.014  25.896  0.00  0.00    +0.000 C 
ATOM      4  C   UNL     1     -14.434   7.292  26.131  0.00  0.00    +0.000 C 
ENDBRANCH   1   3
BRANCH   1   5
ATOM      5  C   UNL     1     -11.029   6.092  26.083  0.00  0.00    +0.000 C 
ATOM      6  C   UNL     1     -10.351   4.731  25.933  0.00  0.00    +0.000 C 
ATOM      7  C   UNL     1     -11.215   6.734  24.706  0.00  0.00    +0.000 C 
ENDBRANCH   1   5
TORSDOF 2
ENDMDL
MODEL 2
REMARK VINA RESULT:    -3.722      0.042      3.245
REMARK INTER + INTRA:          -4.312
REMARK INTER:                  -4.171
REMARK INTRA:                  -0.141
REMARK UNBOUND:                -0.155
REMARK  Name = C:\Users\sofiya chavarekar\OneDrive\Assignment- Module 1\PROJECT(AI-based drug target identification for SDH-related rare disorders)\Data\Ligands\PDB\Ligand_0002.pdb
REMARK  6 active torsions:
REMARK  status: ('A' for Active; 'I' for Inactive)
REMARK    1  A    between atoms: C_1  and  C_2
REMARK    2  A    between atoms: C_2  and  C_3
REMARK    3  A    between atoms: C_2  and  C_4
REMARK    4  A    between atoms: C_4  and  C_5
REMARK    5  A    between atoms: C_5  and  C_6
REMARK    6  A    between atoms: C_5  and  C_7
REMARK                            x       y       z     vdW  Elec       q    Type
REMARK                         _______ _______ _______ _____ _____    ______ ____
ROOT
ATOM      1  C   UNL     1     -12.374   5.948  26.843  0.00  0.00    +0.000 C 
ENDROOT
BRANCH   1   3
ATOM      2  C   UNL     1     -10.330   4.708  25.958  0.00  0.00    +0.000 C 
ATOM      3  C   UNL     1     -11.014   6.066  26.123  0.00  0.00    +0.000 C 
ATOM      4  C   UNL     1     -11.191   6.726  24.752  0.00  0.00    +0.000 C 
ENDBRANCH   1   3
BRANCH   1   5
ATOM      5  C   UNL     1     -13.606   5.989  25.915  0.00  0.00    +0.000 C 
ATOM      6  C   UNL     1     -14.517   4.778  26.114  0.00  0.00    +0.000 C 
ATOM      7  C   UNL     1     -14.401   7.278  26.139  0.00  0.00    +0.000 C 
ENDBRANCH   1   5
TORSDOF 2
ENDMDL
MODEL 3
REMARK VINA RESULT:    -3.635      1.385      2.138
REMARK INTER + INTRA:          -4.215
REMARK INTER:                  -4.014
REMARK INTRA:                  -0.202
REMARK UNBOUND:                -0.155
REMARK  Name = C:\Users\sofiya chavarekar\OneDrive\Assignment- Module 1\PROJECT(AI-based drug target identification for SDH-related rare disorders)\Data\Ligands\PDB\Ligand_0002.pdb
REMARK  6 active torsions:
REMARK  status: ('A' for Active; 'I' for Inactive)
REMARK    1  A    between atoms: C_1  and  C_2
REMARK    2  A    between atoms: C_2  and  C_3
REMARK    3  A    between atoms: C_2  and  C_4
REMARK    4  A    between atoms: C_4  and  C_5
REMARK    5  A    between atoms: C_5  and  C_6
REMARK    6  A    between atoms: C_5  and  C_7
REMARK                            x       y       z     vdW  Elec       q    Type
REMARK                         _______ _______ _______ _____ _____    ______ ____
ROOT
ATOM      1  C   UNL     1     -13.489   5.484  27.327  0.00  0.00    +0.000 C 
ENDROOT
BRANCH   1   3
ATOM      2  C   UNL     1     -13.728   3.009  27.887  0.00  0.00    +0.000 C 
ATOM      3  C   UNL     1     -13.784   4.069  26.787  0.00  0.00    +0.000 C 
ATOM      4  C   UNL     1     -15.154   4.034  26.103  0.00  0.00    +0.000 C 
ENDBRANCH   1   3
BRANCH   1   5
ATOM      5  C   UNL     1     -12.446   6.284  26.518  0.00  0.00    +0.000 C 
ATOM      6  C   UNL     1     -11.279   5.410  26.061  0.00  0.00    +0.000 C 
ATOM      7  C   UNL     1     -13.104   6.946  25.305  0.00  0.00    +0.000 C 
ENDBRANCH   1   5
TORSDOF 2
ENDMDL
MODEL 4
REMARK VINA RESULT:    -3.630      1.389      3.209
REMARK INTER + INTRA:          -4.210
REMARK INTER:                  -4.014
REMARK INTRA:                  -0.195
REMARK UNBOUND:                -0.155
REMARK  Name = C:\Users\sofiya chavarekar\OneDrive\Assignment- Module 1\PROJECT(AI-based drug target identification for SDH-related rare disorders)\Data\Ligands\PDB\Ligand_0002.pdb
REMARK  6 active torsions:
REMARK  status: ('A' for Active; 'I' for Inactive)
REMARK    1  A    between atoms: C_1  and  C_2
REMARK    2  A    between atoms: C_2  and  C_3
REMARK    3  A    between atoms: C_2  and  C_4
REMARK    4  A    between atoms: C_4  and  C_5
REMARK    5  A    between atoms: C_5  and  C_6
REMARK    6  A    between atoms: C_5  and  C_7
REMARK                            x       y       z     vdW  Elec       q    Type
REMARK                         _______ _______ _______ _____ _____    ______ ____
ROOT
ATOM      1  C   UNL     1     -13.464   5.483  27.357  0.00  0.00    +0.000 C 
ENDROOT
BRANCH   1   3
ATOM      2  C   UNL     1     -11.271   5.413  26.060  0.00  0.00    +0.000 C 
ATOM      3  C   UNL     1     -12.433   6.285  26.536  0.00  0.00    +0.000 C 
ATOM      4  C   UNL     1     -13.109   6.948  25.333  0.00  0.00    +0.000 C 
ENDBRANCH   1   3
BRANCH   1   5
ATOM      5  C   UNL     1     -13.766   4.069  26.818  0.00  0.00    +0.000 C 
ATOM      6  C   UNL     1     -13.722   3.011  27.920  0.00  0.00    +0.000 C 
ATOM      7  C   UNL     1     -15.132   4.042  26.127  0.00  0.00    +0.000 C 
ENDBRANCH   1   5
TORSDOF 2
ENDMDL
MODEL 5
REMARK VINA RESULT:    -3.487      0.628      3.638
REMARK INTER + INTRA:          -4.050
REMARK INTER:                  -3.835
REMARK INTRA:                  -0.215
REMARK UNBOUND:                -0.155
REMARK  Name = C:\Users\sofiya chavarekar\OneDrive\Assignment- Module 1\PROJECT(AI-based drug target identification for SDH-related rare disorders)\Data\Ligands\PDB\Ligand_0002.pdb
REMARK  6 active torsions:
REMARK  status: ('A' for Active; 'I' for Inactive)
REMARK    1  A    between atoms: C_1  and  C_2
REMARK    2  A    between atoms: C_2  and  C_3
REMARK    3  A    between atoms: C_2  and  C_4
REMARK    4  A    between atoms: C_4  and  C_5
REMARK    5  A    between atoms: C_5  and  C_6
REMARK    6  A    between atoms: C_5  and  C_7
REMARK                            x       y       z     vdW  Elec       q    Type
REMARK                         _______ _______ _______ _____ _____    ______ ____
ROOT
ATOM      1  C   UNL     1     -12.549   6.183  27.011  0.00  0.00    +0.000 C 
ENDROOT
BRANCH   1   3
ATOM      2  C   UNL     1     -11.414   6.969  24.868  0.00  0.00    +0.000 C 
ATOM      3  C   UNL     1     -11.786   5.766  25.735  0.00  0.00    +0.000 C 
ATOM      4  C   UNL     1     -10.523   4.981  26.102  0.00  0.00    +0.000 C 
ENDBRANCH   1   3
BRANCH   1   5
ATOM      5  C   UNL     1     -14.073   5.944  26.963  0.00  0.00    +0.000 C 
ATOM      6  C   UNL     1     -14.815   7.099  26.291  0.00  0.00    +0.000 C 
ATOM      7  C   UNL     1     -14.386   4.634  26.236  0.00  0.00    +0.000 C 
ENDBRANCH   1   5
TORSDOF 2
ENDMDL
MODEL 6
REMARK VINA RESULT:    -3.081      1.329      3.899
REMARK INTER + INTRA:          -3.596
REMARK INTER:                  -3.379
REMARK INTRA:                  -0.217
REMARK UNBOUND:                -0.155
REMARK  Name = C:\Users\sofiya chavarekar\OneDrive\Assignment- Module 1\PROJECT(AI-based drug target identification for SDH-related rare disorders)\Data\Ligands\PDB\Ligand_0002.pdb
REMARK  6 active torsions:
REMARK  status: ('A' for Active; 'I' for Inactive)
REMARK    1  A    between atoms: C_1  and  C_2
REMARK    2  A    between atoms: C_2  and  C_3
REMARK    3  A    between atoms: C_2  and  C_4
REMARK    4  A    between atoms: C_4  and  C_5
REMARK    5  A    between atoms: C_5  and  C_6
REMARK    6  A    between atoms: C_5  and  C_7
REMARK                            x       y       z     vdW  Elec       q    Type
REMARK                         _______ _______ _______ _____ _____    ______ ____
ROOT
ATOM      1  C   UNL     1     -14.243   6.640  25.642  0.00  0.00    +0.000 C 
ENDROOT
BRANCH   1   3
ATOM      2  C   UNL     1     -11.796   6.162  26.175  0.00  0.00    +0.000 C 
ATOM      3  C   UNL     1     -13.233   5.645  26.252  0.00  0.00    +0.000 C 
ATOM      4  C   UNL     1     -13.597   5.342  27.708  0.00  0.00    +0.000 C 
ENDBRANCH   1   3
BRANCH   1   5
ATOM      5  C   UNL     1     -14.882   7.618  26.650  0.00  0.00    +0.000 C 
ATOM      6  C   UNL     1     -14.454   9.064  26.399  0.00  0.00    +0.000 C 
ATOM      7  C   UNL     1     -16.408   7.513  26.602  0.00  0.00    +0.000 C 
ENDBRANCH   1   5
TORSDOF 2
ENDMDL
MODEL 7
REMARK VINA RESULT:    -2.830      2.079      3.063
REMARK INTER + INTRA:          -3.316
REMARK INTER:                  -3.148
REMARK INTRA:                  -0.168
REMARK UNBOUND:                -0.155
REMARK  Name = C:\Users\sofiya chavarekar\OneDrive\Assignment- Module 1\PROJECT(AI-based drug target identification for SDH-related rare disorders)\Data\Ligands\PDB\Ligand_0002.pdb
REMARK  6 active torsions:
REMARK  status: ('A' for Active; 'I' for Inactive)
REMARK    1  A    between atoms: C_1  and  C_2
REMARK    2  A    between atoms: C_2  and  C_3
REMARK    3  A    between atoms: C_2  and  C_4
REMARK    4  A    between atoms: C_4  and  C_5
REMARK    5  A    between atoms: C_5  and  C_6
REMARK    6  A    between atoms: C_5  and  C_7
REMARK                            x       y       z     vdW  Elec       q    Type
REMARK                         _______ _______ _______ _____ _____    ______ ____
ROOT
ATOM      1  C   UNL     1     -15.361   6.378  26.502  0.00  0.00    +0.000 C 
ENDROOT
BRANCH   1   3
ATOM      2  C   UNL     1     -15.068   3.854  26.293  0.00  0.00    +0.000 C 
ATOM      3  C   UNL     1     -15.238   5.034  27.251  0.00  0.00    +0.000 C 
ATOM      4  C   UNL     1     -14.065   5.077  28.234  0.00  0.00    +0.000 C 
ENDBRANCH   1   3
BRANCH   1   5
ATOM      5  C   UNL     1     -14.059   7.204  26.432  0.00  0.00    +0.000 C 
ATOM      6  C   UNL     1     -13.213   6.841  25.213  0.00  0.00    +0.000 C 
ATOM      7  C   UNL     1     -14.378   8.701  26.414  0.00  0.00    +0.000 C 
ENDBRANCH   1   5
TORSDOF 2
ENDMDL
MODEL 8
REMARK VINA RESULT:    -2.373      8.495     10.659
REMARK INTER + INTRA:          -2.806
REMARK INTER:                  -2.676
REMARK INTRA:                  -0.130
REMARK UNBOUND:                -0.155
REMARK  Name = C:\Users\sofiya chavarekar\OneDrive\Assignment- Module 1\PROJECT(AI-based drug target identification for SDH-related rare disorders)\Data\Ligands\PDB\Ligand_0002.pdb
REMARK  6 active torsions:
REMARK  status: ('A' for Active; 'I' for Inactive)
REMARK    1  A    between atoms: C_1  and  C_2
REMARK    2  A    between atoms: C_2  and  C_3
REMARK    3  A    between atoms: C_2  and  C_4
REMARK    4  A    between atoms: C_4  and  C_5
REMARK    5  A    between atoms: C_5  and  C_6
REMARK    6  A    between atoms: C_5  and  C_7
REMARK                            x       y       z     vdW  Elec       q    Type
REMARK                         _______ _______ _______ _____ _____    ______ ____
ROOT
ATOM      1  C   UNL     1     -18.057  -0.415  31.079  0.00  0.00    +0.000 C 
ENDROOT
BRANCH   1   3
ATOM      2  C   UNL     1     -15.672  -0.098  30.236  0.00  0.00    +0.000 C 
ATOM      3  C   UNL     1     -16.560  -0.702  31.324  0.00  0.00    +0.000 C 
ATOM      4  C   UNL     1     -16.133  -0.172  32.696  0.00  0.00    +0.000 C 
ENDBRANCH   1   3
BRANCH   1   5
ATOM      5  C   UNL     1     -18.934  -1.668  30.871  0.00  0.00    +0.000 C 
ATOM      6  C   UNL     1     -20.230  -1.603  31.678  0.00  0.00    +0.000 C 
ATOM      7  C   UNL     1     -19.256  -1.853  29.386  0.00  0.00    +0.000 C 
ENDBRANCH   1   5
TORSDOF 2
ENDMDL
MODEL 9
REMARK VINA RESULT:    -2.367      5.546      6.719
REMARK INTER + INTRA:          -2.798
REMARK INTER:                  -2.663
REMARK INTRA:                  -0.136
REMARK UNBOUND:                -0.155
REMARK  Name = C:\Users\sofiya chavarekar\OneDrive\Assignment- Module 1\PROJECT(AI-based drug target identification for SDH-related rare disorders)\Data\Ligands\PDB\Ligand_0002.pdb
REMARK  6 active torsions:
REMARK  status: ('A' for Active; 'I' for Inactive)
REMARK    1  A    between atoms: C_1  and  C_2
REMARK    2  A    between atoms: C_2  and  C_3
REMARK    3  A    between atoms: C_2  and  C_4
REMARK    4  A    between atoms: C_4  and  C_5
REMARK    5  A    between atoms: C_5  and  C_6
REMARK    6  A    between atoms: C_5  and  C_7
REMARK                            x       y       z     vdW  Elec       q    Type
REMARK                         _______ _______ _______ _____ _____    ______ ____
ROOT
ATOM      1  C   UNL     1     -13.827   0.492  29.152  0.00  0.00    +0.000 C 
ENDROOT
BRANCH   1   3
ATOM      2  C   UNL     1     -15.999   0.820  27.859  0.00  0.00    +0.000 C 
ATOM      3  C   UNL     1     -14.489   1.058  27.878  0.00  0.00    +0.000 C 
ATOM      4  C   UNL     1     -14.199   2.556  27.747  0.00  0.00    +0.000 C 
ENDBRANCH   1   3
BRANCH   1   5
ATOM      5  C   UNL     1     -13.160  -0.889  28.980  0.00  0.00    +0.000 C 
ATOM      6  C   UNL     1     -11.841  -0.799  28.215  0.00  0.00    +0.000 C 
ATOM      7  C   UNL     1     -12.925  -1.542  30.345  0.00  0.00    +0.000 C 
ENDBRANCH   1   5
TORSDOF 2
ENDMDL
