MODEL 1
REMARK VINA RESULT:    -3.558      0.000      0.000
REMARK INTER + INTRA:          -3.558
REMARK INTER:                  -3.558
REMARK INTRA:                   0.000
REMARK UNBOUND:                 0.000
REMARK  Name = C:\Users\sofiya chavarekar\OneDrive\Assignment- Module 1\PROJECT(AI-based drug target identification for SDH-related rare disorders)\Data\Ligands\PDB\Ligand_0004.pdb
REMARK  0 active torsions:
REMARK  status: ('A' for Active; 'I' for Inactive)
REMARK                            x       y       z     vdW  Elec       q    Type
REMARK                         _______ _______ _______ _____ _____    ______ ____
ROOT
ATOM      1  C   UNL     1     -11.423   6.666  25.204  0.00  0.00    +0.000 C 
ATOM      2  C   UNL     1     -12.655   7.128  24.947  0.00  0.00    +0.000 C 
ATOM      3  C   UNL     1     -13.886   6.593  25.619  0.00  0.00    +0.000 C 
ATOM      4  C   UNL     1     -13.569   5.748  26.856  0.00  0.00    +0.000 C 
ATOM      5  C   UNL     1     -12.413   4.789  26.584  0.00  0.00    +0.000 C 
ATOM      6  C   UNL     1     -11.149   5.545  26.165  0.00  0.00    +0.000 C 
ENDROOT
TORSDOF 0
ENDMDL
MODEL 2
REMARK VINA RESULT:    -3.538      0.577      2.114
REMARK INTER + INTRA:          -3.538
REMARK INTER:                  -3.538
REMARK INTRA:                   0.000
REMARK UNBOUND:                 0.000
REMARK  Name = C:\Users\sofiya chavarekar\OneDrive\Assignment- Module 1\PROJECT(AI-based drug target identification for SDH-related rare disorders)\Data\Ligands\PDB\Ligand_0004.pdb
REMARK  0 active torsions:
REMARK  status: ('A' for Active; 'I' for Inactive)
REMARK                            x       y       z     vdW  Elec       q    Type
REMARK                         _______ _______ _______ _____ _____    ______ ____
ROOT
ATOM      1  C   UNL     1     -11.531   6.431  25.452  0.00  0.00    +0.000 C 
ATOM      2  C   UNL     1     -11.611   5.372  26.270  0.00  0.00    +0.000 C 
ATOM      3  C   UNL     1     -12.914   4.822  26.773  0.00  0.00    +0.000 C 
ATOM      4  C   UNL     1     -14.121   5.347  25.991  0.00  0.00    +0.000 C 
ATOM      5  C   UNL     1     -14.009   6.850  25.752  0.00  0.00    +0.000 C 
ATOM      6  C   UNL     1     -12.733   7.197  24.981  0.00  0.00    +0.000 C 
ENDROOT
TORSDOF 0
ENDMDL
MODEL 3
REMARK VINA RESULT:    -3.536      0.507      1.625
REMARK INTER + INTRA:          -3.536
REMARK INTER:                  -3.536
REMARK INTRA:                   0.000
REMARK UNBOUND:                 0.000
REMARK  Name = C:\Users\sofiya chavarekar\OneDrive\Assignment- Module 1\PROJECT(AI-based drug target identification for SDH-related rare disorders)\Data\Ligands\PDB\Ligand_0004.pdb
REMARK  0 active torsions:
REMARK  status: ('A' for Active; 'I' for Inactive)
REMARK                            x       y       z     vdW  Elec       q    Type
REMARK                         _______ _______ _______ _____ _____    ______ ____
ROOT
ATOM      1  C   UNL     1     -11.497   5.419  26.211  0.00  0.00    +0.000 C 
ATOM      2  C   UNL     1     -11.477   6.490  25.406  0.00  0.00    +0.000 C 
ATOM      3  C   UNL     1     -12.720   7.209  24.968  0.00  0.00    +0.000 C 
ATOM      4  C   UNL     1     -13.949   6.832  25.800  0.00  0.00    +0.000 C 
ATOM      5  C   UNL     1     -14.020   5.324  26.022  0.00  0.00    +0.000 C 
ATOM      6  C   UNL     1     -12.765   4.806  26.731  0.00  0.00    +0.000 C 
ENDROOT
TORSDOF 0
ENDMDL
MODEL 4
REMARK VINA RESULT:    -3.525      0.181      2.087
REMARK INTER + INTRA:          -3.525
REMARK INTER:                  -3.525
REMARK INTRA:                   0.000
REMARK UNBOUND:                 0.000
REMARK  Name = C:\Users\sofiya chavarekar\OneDrive\Assignment- Module 1\PROJECT(AI-based drug target identification for SDH-related rare disorders)\Data\Ligands\PDB\Ligand_0004.pdb
REMARK  0 active torsions:
REMARK  status: ('A' for Active; 'I' for Inactive)
REMARK                            x       y       z     vdW  Elec       q    Type
REMARK                         _______ _______ _______ _____ _____    ______ ____
ROOT
ATOM      1  C   UNL     1     -12.638   7.063  24.957  0.00  0.00    +0.000 C 
ATOM      2  C   UNL     1     -11.369   6.677  25.153  0.00  0.00    +0.000 C 
ATOM      3  C   UNL     1     -10.986   5.573  26.095  0.00  0.00    +0.000 C 
ATOM      4  C   UNL     1     -12.179   4.713  26.520  0.00  0.00    +0.000 C 
ATOM      5  C   UNL     1     -13.385   5.582  26.869  0.00  0.00    +0.000 C 
ATOM      6  C   UNL     1     -13.804   6.455  25.683  0.00  0.00    +0.000 C 
ENDROOT
TORSDOF 0
ENDMDL
MODEL 5
REMARK VINA RESULT:    -3.395      0.477      2.098
REMARK INTER + INTRA:          -3.395
REMARK INTER:                  -3.395
REMARK INTRA:                   0.000
REMARK UNBOUND:                 0.000
REMARK  Name = C:\Users\sofiya chavarekar\OneDrive\Assignment- Module 1\PROJECT(AI-based drug target identification for SDH-related rare disorders)\Data\Ligands\PDB\Ligand_0004.pdb
REMARK  0 active torsions:
REMARK  status: ('A' for Active; 'I' for Inactive)
REMARK                            x       y       z     vdW  Elec       q    Type
REMARK                         _______ _______ _______ _____ _____    ______ ____
ROOT
ATOM      1  C   UNL     1     -12.907   4.766  26.689  0.00  0.00    +0.000 C 
ATOM      2  C   UNL     1     -14.027   5.489  26.550  0.00  0.00    +0.000 C 
ATOM      3  C   UNL     1     -14.068   6.802  25.822  0.00  0.00    +0.000 C 
ATOM      4  C   UNL     1     -12.822   7.046  24.966  0.00  0.00    +0.000 C 
ATOM      5  C   UNL     1     -11.552   6.675  25.727  0.00  0.00    +0.000 C 
ATOM      6  C   UNL     1     -11.572   5.207  26.162  0.00  0.00    +0.000 C 
ENDROOT
TORSDOF 0
ENDMDL
MODEL 6
REMARK VINA RESULT:    -3.198      0.914      2.775
REMARK INTER + INTRA:          -3.198
REMARK INTER:                  -3.198
REMARK INTRA:                   0.000
REMARK UNBOUND:                 0.000
REMARK  Name = C:\Users\sofiya chavarekar\OneDrive\Assignment- Module 1\PROJECT(AI-based drug target identification for SDH-related rare disorders)\Data\Ligands\PDB\Ligand_0004.pdb
REMARK  0 active torsions:
REMARK  status: ('A' for Active; 'I' for Inactive)
REMARK                            x       y       z     vdW  Elec       q    Type
REMARK                         _______ _______ _______ _____ _____    ______ ____
ROOT
ATOM      1  C   UNL     1     -14.689   6.679  26.533  0.00  0.00    +0.000 C 
ATOM      2  C   UNL     1     -14.448   5.410  26.890  0.00  0.00    +0.000 C 
ATOM      3  C   UNL     1     -13.124   4.736  26.673  0.00  0.00    +0.000 C 
ATOM      4  C   UNL     1     -12.000   5.723  26.349  0.00  0.00    +0.000 C 
ATOM      5  C   UNL     1     -12.462   6.766  25.333  0.00  0.00    +0.000 C 
ATOM      6  C   UNL     1     -13.673   7.548  25.849  0.00  0.00    +0.000 C 
ENDROOT
TORSDOF 0
ENDMDL
MODEL 7
REMARK VINA RESULT:    -2.754     12.064     12.756
REMARK INTER + INTRA:          -2.754
REMARK INTER:                  -2.754
REMARK INTRA:                   0.000
REMARK UNBOUND:                 0.000
REMARK  Name = C:\Users\sofiya chavarekar\OneDrive\Assignment- Module 1\PROJECT(AI-based drug target identification for SDH-related rare disorders)\Data\Ligands\PDB\Ligand_0004.pdb
REMARK  0 active torsions:
REMARK  status: ('A' for Active; 'I' for Inactive)
REMARK                            x       y       z     vdW  Elec       q    Type
REMARK                         _______ _______ _______ _____ _____    ______ ____
ROOT
ATOM      1  C   UNL     1     -20.168  -4.673  21.152  0.00  0.00    +0.000 C 
ATOM      2  C   UNL     1     -20.165  -3.452  20.600  0.00  0.00    +0.000 C 
ATOM      3  C   UNL     1     -19.462  -2.277  21.215  0.00  0.00    +0.000 C 
ATOM      4  C   UNL     1     -18.473  -2.683  22.312  0.00  0.00    +0.000 C 
ATOM      5  C   UNL     1     -19.081  -3.734  23.237  0.00  0.00    +0.000 C 
ATOM      6  C   UNL     1     -19.498  -4.985  22.459  0.00  0.00    +0.000 C 
ENDROOT
TORSDOF 0
ENDMDL
MODEL 8
REMARK VINA RESULT:    -2.724     12.060     12.825
REMARK INTER + INTRA:          -2.724
REMARK INTER:                  -2.724
REMARK INTRA:                   0.000
REMARK UNBOUND:                 0.000
REMARK  Name = C:\Users\sofiya chavarekar\OneDrive\Assignment- Module 1\PROJECT(AI-based drug target identification for SDH-related rare disorders)\Data\Ligands\PDB\Ligand_0004.pdb
REMARK  0 active torsions:
REMARK  status: ('A' for Active; 'I' for Inactive)
REMARK                            x       y       z     vdW  Elec       q    Type
REMARK                         _______ _______ _______ _____ _____    ______ ____
ROOT
ATOM      1  C   UNL     1     -18.655  -3.736  22.913  0.00  0.00    +0.000 C 
ATOM      2  C   UNL     1     -19.412  -4.779  22.546  0.00  0.00    +0.000 C 
ATOM      3  C   UNL     1     -20.342  -4.741  21.368  0.00  0.00    +0.000 C 
ATOM      4  C   UNL     1     -20.075  -3.555  20.438  0.00  0.00    +0.000 C 
ATOM      5  C   UNL     1     -19.857  -2.271  21.235  0.00  0.00    +0.000 C 
ATOM      6  C   UNL     1     -18.682  -2.411  22.206  0.00  0.00    +0.000 C 
ENDROOT
TORSDOF 0
ENDMDL
MODEL 9
REMARK VINA RESULT:    -2.709      1.797      3.177
REMARK INTER + INTRA:          -2.709
REMARK INTER:                  -2.709
REMARK INTRA:                   0.000
REMARK UNBOUND:                 0.000
REMARK  Name = C:\Users\sofiya chavarekar\OneDrive\Assignment- Module 1\PROJECT(AI-based drug target identification for SDH-related rare disorders)\Data\Ligands\PDB\Ligand_0004.pdb
REMARK  0 active torsions:
REMARK  status: ('A' for Active; 'I' for Inactive)
REMARK                            x       y       z     vdW  Elec       q    Type
REMARK                         _______ _______ _______ _____ _____    ______ ____
ROOT
ATOM      1  C   UNL     1     -14.198   5.537  26.009  0.00  0.00    +0.000 C 
ATOM      2  C   UNL     1     -15.323   5.536  26.738  0.00  0.00    +0.000 C 
ATOM      3  C   UNL     1     -16.063   6.790  27.102  0.00  0.00    +0.000 C 
ATOM      4  C   UNL     1     -15.623   8.002  26.276  0.00  0.00    +0.000 C 
ATOM      5  C   UNL     1     -14.102   8.062  26.158  0.00  0.00    +0.000 C 
ATOM      6  C   UNL     1     -13.543   6.793  25.510  0.00  0.00    +0.000 C 
ENDROOT
TORSDOF 0
ENDMDL
