MODEL 1
REMARK VINA RESULT:    -2.422      0.000      0.000
REMARK INTER + INTRA:          -2.563
REMARK INTER:                  -2.563
REMARK INTRA:                   0.000
REMARK UNBOUND:                 0.000
REMARK  Name = C:\Users\sofiya chavarekar\OneDrive\Assignment- Module 1\PROJECT(AI-based drug target identification for SDH-related rare disorders)\Data\Ligands\PDB\Ligand_0025.pdb
REMARK  1 active torsions:
REMARK  status: ('A' for Active; 'I' for Inactive)
REMARK    1  A    between atoms: C_2  and  C_3
REMARK                            x       y       z     vdW  Elec       q    Type
REMARK                         _______ _______ _______ _____ _____    ______ ____
ROOT
ATOM      1 CL   UNL     1     -11.220   6.669  25.029  0.00  0.00    +0.000 Cl
ATOM      2  C   UNL     1     -10.873   5.277  26.084  0.00  0.00    +0.000 C 
ENDROOT
BRANCH   2   3
ATOM      3  C   UNL     1      -9.711   4.474  25.529  0.00  0.00    +0.000 C 
ATOM      4 CL   UNL     1      -9.582   2.910  26.373  0.00  0.00    +0.000 Cl
ENDBRANCH   2   3
TORSDOF 1
ENDMDL
MODEL 2
REMARK VINA RESULT:    -2.418      1.538      3.376
REMARK INTER + INTRA:          -2.559
REMARK INTER:                  -2.559
REMARK INTRA:                   0.000
REMARK UNBOUND:                 0.000
REMARK  Name = C:\Users\sofiya chavarekar\OneDrive\Assignment- Module 1\PROJECT(AI-based drug target identification for SDH-related rare disorders)\Data\Ligands\PDB\Ligand_0025.pdb
REMARK  1 active torsions:
REMARK  status: ('A' for Active; 'I' for Inactive)
REMARK    1  A    between atoms: C_2  and  C_3
REMARK                            x       y       z     vdW  Elec       q    Type
REMARK                         _______ _______ _______ _____ _____    ______ ____
ROOT
ATOM      1 CL   UNL     1      -9.724   4.431  25.756  0.00  0.00    +0.000 Cl
ATOM      2  C   UNL     1     -11.192   5.364  26.138  0.00  0.00    +0.000 C 
ENDROOT
BRANCH   2   3
ATOM      3  C   UNL     1     -11.285   6.588  25.246  0.00  0.00    +0.000 C 
ATOM      4 CL   UNL     1     -12.987   7.062  25.020  0.00  0.00    +0.000 Cl
ENDBRANCH   2   3
TORSDOF 1
ENDMDL
MODEL 3
REMARK VINA RESULT:    -2.402      1.514      1.715
REMARK INTER + INTRA:          -2.543
REMARK INTER:                  -2.543
REMARK INTRA:                   0.000
REMARK UNBOUND:                 0.000
REMARK  Name = C:\Users\sofiya chavarekar\OneDrive\Assignment- Module 1\PROJECT(AI-based drug target identification for SDH-related rare disorders)\Data\Ligands\PDB\Ligand_0025.pdb
REMARK  1 active torsions:
REMARK  status: ('A' for Active; 'I' for Inactive)
REMARK    1  A    between atoms: C_2  and  C_3
REMARK                            x       y       z     vdW  Elec       q    Type
REMARK                         _______ _______ _______ _____ _____    ______ ____
ROOT
ATOM      1 CL   UNL     1     -12.948   7.096  25.015  0.00  0.00    +0.000 Cl
ATOM      2  C   UNL     1     -11.260   6.540  25.116  0.00  0.00    +0.000 C 
ENDROOT
BRANCH   2   3
ATOM      3  C   UNL     1     -11.137   5.412  26.123  0.00  0.00    +0.000 C 
ATOM      4 CL   UNL     1      -9.707   4.413  25.762  0.00  0.00    +0.000 Cl
ENDBRANCH   2   3
TORSDOF 1
ENDMDL
MODEL 4
REMARK VINA RESULT:    -2.231      2.529      4.145
REMARK INTER + INTRA:          -2.362
REMARK INTER:                  -2.362
REMARK INTRA:                   0.000
REMARK UNBOUND:                 0.000
REMARK  Name = C:\Users\sofiya chavarekar\OneDrive\Assignment- Module 1\PROJECT(AI-based drug target identification for SDH-related rare disorders)\Data\Ligands\PDB\Ligand_0025.pdb
REMARK  1 active torsions:
REMARK  status: ('A' for Active; 'I' for Inactive)
REMARK    1  A    between atoms: C_2  and  C_3
REMARK                            x       y       z     vdW  Elec       q    Type
REMARK                         _______ _______ _______ _____ _____    ______ ____
ROOT
ATOM      1 CL   UNL     1     -10.949   5.544  26.137  0.00  0.00    +0.000 Cl
ATOM      2  C   UNL     1     -11.807   6.766  25.166  0.00  0.00    +0.000 C 
ENDROOT
BRANCH   2   3
ATOM      3  C   UNL     1     -13.307   6.600  25.318  0.00  0.00    +0.000 C 
ATOM      4 CL   UNL     1     -13.985   7.943  26.273  0.00  0.00    +0.000 Cl
ENDBRANCH   2   3
TORSDOF 1
ENDMDL
MODEL 5
REMARK VINA RESULT:    -2.174      2.355      2.641
REMARK INTER + INTRA:          -2.301
REMARK INTER:                  -2.301
REMARK INTRA:                   0.000
REMARK UNBOUND:                 0.000
REMARK  Name = C:\Users\sofiya chavarekar\OneDrive\Assignment- Module 1\PROJECT(AI-based drug target identification for SDH-related rare disorders)\Data\Ligands\PDB\Ligand_0025.pdb
REMARK  1 active torsions:
REMARK  status: ('A' for Active; 'I' for Inactive)
REMARK    1  A    between atoms: C_2  and  C_3
REMARK                            x       y       z     vdW  Elec       q    Type
REMARK                         _______ _______ _______ _____ _____    ______ ____
ROOT
ATOM      1 CL   UNL     1     -13.041   4.455  26.802  0.00  0.00    +0.000 Cl
ATOM      2  C   UNL     1     -12.833   6.159  26.330  0.00  0.00    +0.000 C 
ENDROOT
BRANCH   2   3
ATOM      3  C   UNL     1     -11.497   6.355  25.639  0.00  0.00    +0.000 C 
ATOM      4 CL   UNL     1     -10.429   4.964  25.953  0.00  0.00    +0.000 Cl
ENDBRANCH   2   3
TORSDOF 1
ENDMDL
MODEL 6
REMARK VINA RESULT:    -1.993      7.087      7.943
REMARK INTER + INTRA:          -2.109
REMARK INTER:                  -2.109
REMARK INTRA:                   0.000
REMARK UNBOUND:                 0.000
REMARK  Name = C:\Users\sofiya chavarekar\OneDrive\Assignment- Module 1\PROJECT(AI-based drug target identification for SDH-related rare disorders)\Data\Ligands\PDB\Ligand_0025.pdb
REMARK  1 active torsions:
REMARK  status: ('A' for Active; 'I' for Inactive)
REMARK    1  A    between atoms: C_2  and  C_3
REMARK                            x       y       z     vdW  Elec       q    Type
REMARK                         _______ _______ _______ _____ _____    ______ ____
ROOT
ATOM      1 CL   UNL     1     -11.159  -1.359  28.251  0.00  0.00    +0.000 Cl
ATOM      2  C   UNL     1     -12.668  -0.779  28.997  0.00  0.00    +0.000 C 
ENDROOT
BRANCH   2   3
ATOM      3  C   UNL     1     -12.898  -1.473  30.327  0.00  0.00    +0.000 C 
ATOM      4 CL   UNL     1     -14.470  -0.989  31.014  0.00  0.00    +0.000 Cl
ENDBRANCH   2   3
TORSDOF 1
ENDMDL
MODEL 7
REMARK VINA RESULT:    -1.844      3.634      4.442
REMARK INTER + INTRA:          -1.952
REMARK INTER:                  -1.952
REMARK INTRA:                   0.000
REMARK UNBOUND:                 0.000
REMARK  Name = C:\Users\sofiya chavarekar\OneDrive\Assignment- Module 1\PROJECT(AI-based drug target identification for SDH-related rare disorders)\Data\Ligands\PDB\Ligand_0025.pdb
REMARK  1 active torsions:
REMARK  status: ('A' for Active; 'I' for Inactive)
REMARK    1  A    between atoms: C_2  and  C_3
REMARK                            x       y       z     vdW  Elec       q    Type
REMARK                         _______ _______ _______ _____ _____    ______ ____
ROOT
ATOM      1 CL   UNL     1     -15.901   6.440  26.865  0.00  0.00    +0.000 Cl
ATOM      2  C   UNL     1     -14.430   7.294  26.336  0.00  0.00    +0.000 C 
ENDROOT
BRANCH   2   3
ATOM      3  C   UNL     1     -13.627   6.421  25.390  0.00  0.00    +0.000 C 
ATOM      4 CL   UNL     1     -11.919   6.368  25.896  0.00  0.00    +0.000 Cl
ENDBRANCH   2   3
TORSDOF 1
ENDMDL
MODEL 8
REMARK VINA RESULT:    -1.837      3.563      4.407
REMARK INTER + INTRA:          -1.945
REMARK INTER:                  -1.945
REMARK INTRA:                   0.000
REMARK UNBOUND:                 0.000
REMARK  Name = C:\Users\sofiya chavarekar\OneDrive\Assignment- Module 1\PROJECT(AI-based drug target identification for SDH-related rare disorders)\Data\Ligands\PDB\Ligand_0025.pdb
REMARK  1 active torsions:
REMARK  status: ('A' for Active; 'I' for Inactive)
REMARK    1  A    between atoms: C_2  and  C_3
REMARK                            x       y       z     vdW  Elec       q    Type
REMARK                         _______ _______ _______ _____ _____    ______ ____
ROOT
ATOM      1 CL   UNL     1     -14.350   4.803  26.285  0.00  0.00    +0.000 Cl
ATOM      2  C   UNL     1     -12.726   5.528  26.184  0.00  0.00    +0.000 C 
ENDROOT
BRANCH   2   3
ATOM      3  C   UNL     1     -12.782   6.841  25.427  0.00  0.00    +0.000 C 
ATOM      4 CL   UNL     1     -13.889   7.977  26.239  0.00  0.00    +0.000 Cl
ENDBRANCH   2   3
TORSDOF 1
ENDMDL
MODEL 9
REMARK VINA RESULT:    -1.770      7.331      7.801
REMARK INTER + INTRA:          -1.874
REMARK INTER:                  -1.874
REMARK INTRA:                   0.000
REMARK UNBOUND:                 0.000
REMARK  Name = C:\Users\sofiya chavarekar\OneDrive\Assignment- Module 1\PROJECT(AI-based drug target identification for SDH-related rare disorders)\Data\Ligands\PDB\Ligand_0025.pdb
REMARK  1 active torsions:
REMARK  status: ('A' for Active; 'I' for Inactive)
REMARK    1  A    between atoms: C_2  and  C_3
REMARK                            x       y       z     vdW  Elec       q    Type
REMARK                         _______ _______ _______ _____ _____    ______ ____
ROOT
ATOM      1 CL   UNL     1     -12.460  -1.683  30.223  0.00  0.00    +0.000 Cl
ATOM      2  C   UNL     1     -12.775  -0.667  28.795  0.00  0.00    +0.000 C 
ENDROOT
BRANCH   2   3
ATOM      3  C   UNL     1     -14.263  -0.415  28.646  0.00  0.00    +0.000 C 
ATOM      4 CL   UNL     1     -14.857  -1.104  27.113  0.00  0.00    +0.000 Cl
ENDBRANCH   2   3
TORSDOF 1
ENDMDL
