MODEL 1
REMARK VINA RESULT:    -3.429      0.000      0.000
REMARK INTER + INTRA:          -3.909
REMARK INTER:                  -3.830
REMARK INTRA:                  -0.079
REMARK UNBOUND:                -0.079
REMARK  Name = C:\Users\sofiya chavarekar\OneDrive\Assignment- Module 1\PROJECT(AI-based drug target identification for SDH-related rare disorders)\Data\Ligands\PDB\Ligand_0032.pdb
REMARK  4 active torsions:
REMARK  status: ('A' for Active; 'I' for Inactive)
REMARK    1  A    between atoms: C_1  and  C_2
REMARK    2  A    between atoms: C_2  and  C_3
REMARK    3  A    between atoms: C_2  and  C_4
REMARK    4  A    between atoms: C_4  and  C_5
REMARK                            x       y       z     vdW  Elec       q    Type
REMARK                         _______ _______ _______ _____ _____    ______ ____
ROOT
ATOM      1  C   UNL     1     -10.184   4.625  25.874  0.00  0.00    +0.000 C 
ATOM      2  C   UNL     1     -10.968   5.932  25.992  0.00  0.00    +0.000 C 
ATOM      3  C   UNL     1     -10.901   6.693  24.665  0.00  0.00    +0.000 C 
ENDROOT
BRANCH   2   4
ATOM      4  C   UNL     1     -12.440   5.707  26.384  0.00  0.00    +0.000 C 
BRANCH   4   5
ATOM      5  C   UNL     1     -13.430   6.340  25.418  0.00  0.00    +0.000 C 
ATOM      6 BR   UNL     1     -14.212   7.929  26.235  0.00  0.00    +0.000 Br
ENDBRANCH   4   5
ENDBRANCH   2   4
TORSDOF 2
ENDMDL
MODEL 2
REMARK VINA RESULT:    -3.293      1.410      2.051
REMARK INTER + INTRA:          -3.756
REMARK INTER:                  -3.718
REMARK INTRA:                  -0.038
REMARK UNBOUND:                -0.079
REMARK  Name = C:\Users\sofiya chavarekar\OneDrive\Assignment- Module 1\PROJECT(AI-based drug target identification for SDH-related rare disorders)\Data\Ligands\PDB\Ligand_0032.pdb
REMARK  4 active torsions:
REMARK  status: ('A' for Active; 'I' for Inactive)
REMARK    1  A    between atoms: C_1  and  C_2
REMARK    2  A    between atoms: C_2  and  C_3
REMARK    3  A    between atoms: C_2  and  C_4
REMARK    4  A    between atoms: C_4  and  C_5
REMARK                            x       y       z     vdW  Elec       q    Type
REMARK                         _______ _______ _______ _____ _____    ______ ____
ROOT
ATOM      1  C   UNL     1      -9.477   2.989  26.476  0.00  0.00    +0.000 C 
ATOM      2  C   UNL     1      -9.699   4.399  25.930  0.00  0.00    +0.000 C 
ATOM      3  C   UNL     1      -9.327   4.438  24.445  0.00  0.00    +0.000 C 
ENDROOT
BRANCH   2   4
ATOM      4  C   UNL     1     -11.150   4.883  26.110  0.00  0.00    +0.000 C 
BRANCH   4   5
ATOM      5  C   UNL     1     -11.342   6.359  25.800  0.00  0.00    +0.000 C 
ATOM      6 BR   UNL     1     -13.218   6.700  25.393  0.00  0.00    +0.000 Br
ENDBRANCH   4   5
ENDBRANCH   2   4
TORSDOF 2
ENDMDL
MODEL 3
REMARK VINA RESULT:    -3.218      2.052      2.451
REMARK INTER + INTRA:          -3.673
REMARK INTER:                  -3.567
REMARK INTRA:                  -0.105
REMARK UNBOUND:                -0.079
REMARK  Name = C:\Users\sofiya chavarekar\OneDrive\Assignment- Module 1\PROJECT(AI-based drug target identification for SDH-related rare disorders)\Data\Ligands\PDB\Ligand_0032.pdb
REMARK  4 active torsions:
REMARK  status: ('A' for Active; 'I' for Inactive)
REMARK    1  A    between atoms: C_1  and  C_2
REMARK    2  A    between atoms: C_2  and  C_3
REMARK    3  A    between atoms: C_2  and  C_4
REMARK    4  A    between atoms: C_4  and  C_5
REMARK                            x       y       z     vdW  Elec       q    Type
REMARK                         _______ _______ _______ _____ _____    ______ ____
ROOT
ATOM      1  C   UNL     1     -11.188   5.554  26.045  0.00  0.00    +0.000 C 
ATOM      2  C   UNL     1     -12.372   6.444  26.422  0.00  0.00    +0.000 C 
ATOM      3  C   UNL     1     -13.012   7.011  25.152  0.00  0.00    +0.000 C 
ENDROOT
BRANCH   2   4
ATOM      4  C   UNL     1     -13.438   5.696  27.245  0.00  0.00    +0.000 C 
BRANCH   4   5
ATOM      5  C   UNL     1     -13.526   4.213  26.922  0.00  0.00    +0.000 C 
ATOM      6 BR   UNL     1     -15.326   3.788  26.304  0.00  0.00    +0.000 Br
ENDBRANCH   4   5
ENDBRANCH   2   4
TORSDOF 2
ENDMDL
MODEL 4
REMARK VINA RESULT:    -3.076      1.226      1.932
REMARK INTER + INTRA:          -3.515
REMARK INTER:                  -3.437
REMARK INTRA:                  -0.078
REMARK UNBOUND:                -0.079
REMARK  Name = C:\Users\sofiya chavarekar\OneDrive\Assignment- Module 1\PROJECT(AI-based drug target identification for SDH-related rare disorders)\Data\Ligands\PDB\Ligand_0032.pdb
REMARK  4 active torsions:
REMARK  status: ('A' for Active; 'I' for Inactive)
REMARK    1  A    between atoms: C_1  and  C_2
REMARK    2  A    between atoms: C_2  and  C_3
REMARK    3  A    between atoms: C_2  and  C_4
REMARK    4  A    between atoms: C_4  and  C_5
REMARK                            x       y       z     vdW  Elec       q    Type
REMARK                         _______ _______ _______ _____ _____    ______ ____
ROOT
ATOM      1  C   UNL     1     -12.951   4.869  26.770  0.00  0.00    +0.000 C 
ATOM      2  C   UNL     1     -12.343   6.203  26.338  0.00  0.00    +0.000 C 
ATOM      3  C   UNL     1     -11.020   5.952  25.608  0.00  0.00    +0.000 C 
ENDROOT
BRANCH   2   4
ATOM      4  C   UNL     1     -13.285   7.018  25.431  0.00  0.00    +0.000 C 
BRANCH   4   5
ATOM      5  C   UNL     1     -14.033   8.119  26.166  0.00  0.00    +0.000 C 
ATOM      6 BR   UNL     1     -15.774   7.452  26.739  0.00  0.00    +0.000 Br
ENDBRANCH   4   5
ENDBRANCH   2   4
TORSDOF 2
ENDMDL
MODEL 5
REMARK VINA RESULT:    -3.046      2.147      2.929
REMARK INTER + INTRA:          -3.481
REMARK INTER:                  -3.391
REMARK INTRA:                  -0.090
REMARK UNBOUND:                -0.079
REMARK  Name = C:\Users\sofiya chavarekar\OneDrive\Assignment- Module 1\PROJECT(AI-based drug target identification for SDH-related rare disorders)\Data\Ligands\PDB\Ligand_0032.pdb
REMARK  4 active torsions:
REMARK  status: ('A' for Active; 'I' for Inactive)
REMARK    1  A    between atoms: C_1  and  C_2
REMARK    2  A    between atoms: C_2  and  C_3
REMARK    3  A    between atoms: C_2  and  C_4
REMARK    4  A    between atoms: C_4  and  C_5
REMARK                            x       y       z     vdW  Elec       q    Type
REMARK                         _______ _______ _______ _____ _____    ______ ____
ROOT
ATOM      1  C   UNL     1     -13.255   7.023  25.355  0.00  0.00    +0.000 C 
ATOM      2  C   UNL     1     -12.644   5.729  25.892  0.00  0.00    +0.000 C 
ATOM      3  C   UNL     1     -11.137   5.917  26.091  0.00  0.00    +0.000 C 
ENDROOT
BRANCH   2   4
ATOM      4  C   UNL     1     -13.285   5.275  27.218  0.00  0.00    +0.000 C 
BRANCH   4   5
ATOM      5  C   UNL     1     -13.759   3.831  27.200  0.00  0.00    +0.000 C 
ATOM      6 BR   UNL     1     -15.451   3.713  26.237  0.00  0.00    +0.000 Br
ENDBRANCH   4   5
ENDBRANCH   2   4
TORSDOF 2
ENDMDL
MODEL 6
REMARK VINA RESULT:    -2.592      2.876      4.410
REMARK INTER + INTRA:          -2.974
REMARK INTER:                  -2.928
REMARK INTRA:                  -0.046
REMARK UNBOUND:                -0.079
REMARK  Name = C:\Users\sofiya chavarekar\OneDrive\Assignment- Module 1\PROJECT(AI-based drug target identification for SDH-related rare disorders)\Data\Ligands\PDB\Ligand_0032.pdb
REMARK  4 active torsions:
REMARK  status: ('A' for Active; 'I' for Inactive)
REMARK    1  A    between atoms: C_1  and  C_2
REMARK    2  A    between atoms: C_2  and  C_3
REMARK    3  A    between atoms: C_2  and  C_4
REMARK    4  A    between atoms: C_4  and  C_5
REMARK                            x       y       z     vdW  Elec       q    Type
REMARK                         _______ _______ _______ _____ _____    ______ ____
ROOT
ATOM      1  C   UNL     1     -15.891   7.408  27.477  0.00  0.00    +0.000 C 
ATOM      2  C   UNL     1     -15.231   8.265  26.397  0.00  0.00    +0.000 C 
ATOM      3  C   UNL     1     -15.314   9.742  26.792  0.00  0.00    +0.000 C 
ENDROOT
BRANCH   2   4
ATOM      4  C   UNL     1     -13.760   7.880  26.151  0.00  0.00    +0.000 C 
BRANCH   4   5
ATOM      5  C   UNL     1     -13.589   6.510  25.512  0.00  0.00    +0.000 C 
ATOM      6 BR   UNL     1     -11.932   5.699  26.147  0.00  0.00    +0.000 Br
ENDBRANCH   4   5
ENDBRANCH   2   4
TORSDOF 2
ENDMDL
MODEL 7
REMARK VINA RESULT:    -2.589      2.815      3.436
REMARK INTER + INTRA:          -2.970
REMARK INTER:                  -2.893
REMARK INTRA:                  -0.077
REMARK UNBOUND:                -0.079
REMARK  Name = C:\Users\sofiya chavarekar\OneDrive\Assignment- Module 1\PROJECT(AI-based drug target identification for SDH-related rare disorders)\Data\Ligands\PDB\Ligand_0032.pdb
REMARK  4 active torsions:
REMARK  status: ('A' for Active; 'I' for Inactive)
REMARK    1  A    between atoms: C_1  and  C_2
REMARK    2  A    between atoms: C_2  and  C_3
REMARK    3  A    between atoms: C_2  and  C_4
REMARK    4  A    between atoms: C_4  and  C_5
REMARK                            x       y       z     vdW  Elec       q    Type
REMARK                         _______ _______ _______ _____ _____    ______ ____
ROOT
ATOM      1  C   UNL     1     -12.940   6.908  25.149  0.00  0.00    +0.000 C 
ATOM      2  C   UNL     1     -13.672   7.248  26.447  0.00  0.00    +0.000 C 
ATOM      3  C   UNL     1     -14.339   8.621  26.315  0.00  0.00    +0.000 C 
ENDROOT
BRANCH   2   4
ATOM      4  C   UNL     1     -14.731   6.195  26.824  0.00  0.00    +0.000 C 
BRANCH   4   5
ATOM      5  C   UNL     1     -14.529   4.856  26.133  0.00  0.00    +0.000 C 
ATOM      6 BR   UNL     1     -13.734   3.591  27.386  0.00  0.00    +0.000 Br
ENDBRANCH   4   5
ENDBRANCH   2   4
TORSDOF 2
ENDMDL
MODEL 8
REMARK VINA RESULT:    -2.482      7.130      7.726
REMARK INTER + INTRA:          -2.851
REMARK INTER:                  -2.712
REMARK INTRA:                  -0.139
REMARK UNBOUND:                -0.079
REMARK  Name = C:\Users\sofiya chavarekar\OneDrive\Assignment- Module 1\PROJECT(AI-based drug target identification for SDH-related rare disorders)\Data\Ligands\PDB\Ligand_0032.pdb
REMARK  4 active torsions:
REMARK  status: ('A' for Active; 'I' for Inactive)
REMARK    1  A    between atoms: C_1  and  C_2
REMARK    2  A    between atoms: C_2  and  C_3
REMARK    3  A    between atoms: C_2  and  C_4
REMARK    4  A    between atoms: C_4  and  C_5
REMARK                            x       y       z     vdW  Elec       q    Type
REMARK                         _______ _______ _______ _____ _____    ______ ____
ROOT
ATOM      1  C   UNL     1     -13.068  -1.452  30.224  0.00  0.00    +0.000 C 
ATOM      2  C   UNL     1     -12.508  -0.363  29.309  0.00  0.00    +0.000 C 
ATOM      3  C   UNL     1     -11.669  -1.006  28.200  0.00  0.00    +0.000 C 
ENDROOT
BRANCH   2   4
ATOM      4  C   UNL     1     -13.612   0.508  28.679  0.00  0.00    +0.000 C 
BRANCH   4   5
ATOM      5  C   UNL     1     -14.990  -0.134  28.722  0.00  0.00    +0.000 C 
ATOM      6 BR   UNL     1     -15.411  -0.886  26.972  0.00  0.00    +0.000 Br
ENDBRANCH   4   5
ENDBRANCH   2   4
TORSDOF 2
ENDMDL
MODEL 9
REMARK VINA RESULT:    -2.462      2.585      4.014
REMARK INTER + INTRA:          -2.829
REMARK INTER:                  -2.755
REMARK INTRA:                  -0.074
REMARK UNBOUND:                -0.079
REMARK  Name = C:\Users\sofiya chavarekar\OneDrive\Assignment- Module 1\PROJECT(AI-based drug target identification for SDH-related rare disorders)\Data\Ligands\PDB\Ligand_0032.pdb
REMARK  4 active torsions:
REMARK  status: ('A' for Active; 'I' for Inactive)
REMARK    1  A    between atoms: C_1  and  C_2
REMARK    2  A    between atoms: C_2  and  C_3
REMARK    3  A    between atoms: C_2  and  C_4
REMARK    4  A    between atoms: C_4  and  C_5
REMARK                            x       y       z     vdW  Elec       q    Type
REMARK                         _______ _______ _______ _____ _____    ______ ____
ROOT
ATOM      1  C   UNL     1     -15.659   6.018  27.980  0.00  0.00    +0.000 C 
ATOM      2  C   UNL     1     -14.323   5.347  27.661  0.00  0.00    +0.000 C 
ATOM      3  C   UNL     1     -14.255   3.984  28.355  0.00  0.00    +0.000 C 
ENDROOT
BRANCH   2   4
ATOM      4  C   UNL     1     -14.096   5.167  26.148  0.00  0.00    +0.000 C 
BRANCH   4   5
ATOM      5  C   UNL     1     -13.414   6.357  25.490  0.00  0.00    +0.000 C 
ATOM      6 BR   UNL     1     -11.483   6.212  25.724  0.00  0.00    +0.000 Br
ENDBRANCH   4   5
ENDBRANCH   2   4
TORSDOF 2
ENDMDL
