MODEL 1
REMARK VINA RESULT:    -3.316      0.000      0.000
REMARK INTER + INTRA:          -3.722
REMARK INTER:                  -3.704
REMARK INTRA:                  -0.018
REMARK UNBOUND:                -0.018
REMARK  Name = C:\Users\sofiya chavarekar\OneDrive\Assignment- Module 1\PROJECT(AI-based drug target identification for SDH-related rare disorders)\Data\Ligands\PDB\Ligand_0005.pdb
REMARK  2 active torsions:
REMARK  status: ('A' for Active; 'I' for Inactive)
REMARK    1  A    between atoms: C_2  and  C_3
REMARK    2  A    between atoms: C_3  and  C_4
REMARK                            x       y       z     vdW  Elec       q    Type
REMARK                         _______ _______ _______ _____ _____    ______ ____
ROOT
ATOM      1  C   UNL     1     -11.146   5.420  26.227  0.00  0.00    +0.000 C 
ENDROOT
BRANCH   1   3
ATOM      2  C   UNL     1     -12.804   6.940  25.105  0.00  0.00    +0.000 C 
ATOM      3  C   UNL     1     -11.538   6.573  25.350  0.00  0.00    +0.000 C 
ENDBRANCH   1   3
BRANCH   1   4
ATOM      4  C   UNL     1      -9.959   4.691  25.668  0.00  0.00    +0.000 C 
ATOM      5  C   UNL     1      -9.549   3.485  26.081  0.00  0.00    +0.000 C 
ENDBRANCH   1   4
TORSDOF 2
ENDMDL
MODEL 2
REMARK VINA RESULT:    -3.297      0.066      3.439
REMARK INTER + INTRA:          -3.700
REMARK INTER:                  -3.681
REMARK INTRA:                  -0.019
REMARK UNBOUND:                -0.018
REMARK  Name = C:\Users\sofiya chavarekar\OneDrive\Assignment- Module 1\PROJECT(AI-based drug target identification for SDH-related rare disorders)\Data\Ligands\PDB\Ligand_0005.pdb
REMARK  2 active torsions:
REMARK  status: ('A' for Active; 'I' for Inactive)
REMARK    1  A    between atoms: C_2  and  C_3
REMARK    2  A    between atoms: C_3  and  C_4
REMARK                            x       y       z     vdW  Elec       q    Type
REMARK                         _______ _______ _______ _____ _____    ______ ____
ROOT
ATOM      1  C   UNL     1     -11.098   5.507  26.243  0.00  0.00    +0.000 C 
ENDROOT
BRANCH   1   3
ATOM      2  C   UNL     1      -9.574   3.517  26.059  0.00  0.00    +0.000 C 
ATOM      3  C   UNL     1      -9.944   4.743  25.664  0.00  0.00    +0.000 C 
ENDBRANCH   1   3
BRANCH   1   4
ATOM      4  C   UNL     1     -11.556   6.590  25.310  0.00  0.00    +0.000 C 
ATOM      5  C   UNL     1     -12.832   6.969  25.159  0.00  0.00    +0.000 C 
ENDBRANCH   1   4
TORSDOF 2
ENDMDL
MODEL 3
REMARK VINA RESULT:    -3.198      0.698      3.643
REMARK INTER + INTRA:          -3.590
REMARK INTER:                  -3.566
REMARK INTRA:                  -0.023
REMARK UNBOUND:                -0.018
REMARK  Name = C:\Users\sofiya chavarekar\OneDrive\Assignment- Module 1\PROJECT(AI-based drug target identification for SDH-related rare disorders)\Data\Ligands\PDB\Ligand_0005.pdb
REMARK  2 active torsions:
REMARK  status: ('A' for Active; 'I' for Inactive)
REMARK    1  A    between atoms: C_2  and  C_3
REMARK    2  A    between atoms: C_3  and  C_4
REMARK                            x       y       z     vdW  Elec       q    Type
REMARK                         _______ _______ _______ _____ _____    ______ ____
ROOT
ATOM      1  C   UNL     1     -11.560   6.643  25.303  0.00  0.00    +0.000 C 
ENDROOT
BRANCH   1   3
ATOM      2  C   UNL     1     -10.059   4.701  25.843  0.00  0.00    +0.000 C 
ATOM      3  C   UNL     1     -11.092   5.497  26.151  0.00  0.00    +0.000 C 
ENDBRANCH   1   3
BRANCH   1   4
ATOM      4  C   UNL     1     -13.058   6.742  25.300  0.00  0.00    +0.000 C 
ATOM      5  C   UNL     1     -13.759   7.617  26.033  0.00  0.00    +0.000 C 
ENDBRANCH   1   4
TORSDOF 2
ENDMDL
MODEL 4
REMARK VINA RESULT:    -3.000      1.137      1.980
REMARK INTER + INTRA:          -3.369
REMARK INTER:                  -3.336
REMARK INTRA:                  -0.034
REMARK UNBOUND:                -0.018
REMARK  Name = C:\Users\sofiya chavarekar\OneDrive\Assignment- Module 1\PROJECT(AI-based drug target identification for SDH-related rare disorders)\Data\Ligands\PDB\Ligand_0005.pdb
REMARK  2 active torsions:
REMARK  status: ('A' for Active; 'I' for Inactive)
REMARK    1  A    between atoms: C_2  and  C_3
REMARK    2  A    between atoms: C_3  and  C_4
REMARK                            x       y       z     vdW  Elec       q    Type
REMARK                         _______ _______ _______ _____ _____    ______ ____
ROOT
ATOM      1  C   UNL     1     -12.198   6.720  25.363  0.00  0.00    +0.000 C 
ENDROOT
BRANCH   1   3
ATOM      2  C   UNL     1     -14.502   6.907  26.349  0.00  0.00    +0.000 C 
ATOM      3  C   UNL     1     -13.696   6.640  25.312  0.00  0.00    +0.000 C 
ENDBRANCH   1   3
BRANCH   1   4
ATOM      4  C   UNL     1     -11.619   5.588  26.160  0.00  0.00    +0.000 C 
ATOM      5  C   UNL     1     -10.433   5.017  25.912  0.00  0.00    +0.000 C 
ENDBRANCH   1   4
TORSDOF 2
ENDMDL
MODEL 5
REMARK VINA RESULT:    -2.965      1.960      2.512
REMARK INTER + INTRA:          -3.330
REMARK INTER:                  -3.269
REMARK INTRA:                  -0.061
REMARK UNBOUND:                -0.018
REMARK  Name = C:\Users\sofiya chavarekar\OneDrive\Assignment- Module 1\PROJECT(AI-based drug target identification for SDH-related rare disorders)\Data\Ligands\PDB\Ligand_0005.pdb
REMARK  2 active torsions:
REMARK  status: ('A' for Active; 'I' for Inactive)
REMARK    1  A    between atoms: C_2  and  C_3
REMARK    2  A    between atoms: C_3  and  C_4
REMARK                            x       y       z     vdW  Elec       q    Type
REMARK                         _______ _______ _______ _____ _____    ______ ____
ROOT
ATOM      1  C   UNL     1     -12.511   6.049  26.815  0.00  0.00    +0.000 C 
ENDROOT
BRANCH   1   3
ATOM      2  C   UNL     1     -13.679   3.840  27.080  0.00  0.00    +0.000 C 
ATOM      3  C   UNL     1     -13.567   5.036  26.485  0.00  0.00    +0.000 C 
ENDBRANCH   1   3
BRANCH   1   4
ATOM      4  C   UNL     1     -11.368   5.980  25.844  0.00  0.00    +0.000 C 
ATOM      5  C   UNL     1     -10.399   5.056  25.881  0.00  0.00    +0.000 C 
ENDBRANCH   1   4
TORSDOF 2
ENDMDL
MODEL 6
REMARK VINA RESULT:    -2.818      3.915      5.411
REMARK INTER + INTRA:          -3.166
REMARK INTER:                  -3.151
REMARK INTRA:                  -0.015
REMARK UNBOUND:                -0.018
REMARK  Name = C:\Users\sofiya chavarekar\OneDrive\Assignment- Module 1\PROJECT(AI-based drug target identification for SDH-related rare disorders)\Data\Ligands\PDB\Ligand_0005.pdb
REMARK  2 active torsions:
REMARK  status: ('A' for Active; 'I' for Inactive)
REMARK    1  A    between atoms: C_2  and  C_3
REMARK    2  A    between atoms: C_3  and  C_4
REMARK                            x       y       z     vdW  Elec       q    Type
REMARK                         _______ _______ _______ _____ _____    ______ ____
ROOT
ATOM      1  C   UNL     1      -7.798   1.592  28.074  0.00  0.00    +0.000 C 
ENDROOT
BRANCH   1   3
ATOM      2  C   UNL     1      -9.844   2.320  26.809  0.00  0.00    +0.000 C 
ATOM      3  C   UNL     1      -8.576   2.524  27.191  0.00  0.00    +0.000 C 
ENDBRANCH   1   3
BRANCH   1   4
ATOM      4  C   UNL     1      -6.698   2.317  28.793  0.00  0.00    +0.000 C 
ATOM      5  C   UNL     1      -5.871   1.748  29.681  0.00  0.00    +0.000 C 
ENDBRANCH   1   4
TORSDOF 2
ENDMDL
MODEL 7
REMARK VINA RESULT:    -2.724      2.222      3.307
REMARK INTER + INTRA:          -3.060
REMARK INTER:                  -2.992
REMARK INTRA:                  -0.068
REMARK UNBOUND:                -0.018
REMARK  Name = C:\Users\sofiya chavarekar\OneDrive\Assignment- Module 1\PROJECT(AI-based drug target identification for SDH-related rare disorders)\Data\Ligands\PDB\Ligand_0005.pdb
REMARK  2 active torsions:
REMARK  status: ('A' for Active; 'I' for Inactive)
REMARK    1  A    between atoms: C_2  and  C_3
REMARK    2  A    between atoms: C_3  and  C_4
REMARK                            x       y       z     vdW  Elec       q    Type
REMARK                         _______ _______ _______ _____ _____    ______ ____
ROOT
ATOM      1  C   UNL     1     -13.596   5.912  25.868  0.00  0.00    +0.000 C 
ENDROOT
BRANCH   1   3
ATOM      2  C   UNL     1     -11.086   5.876  25.984  0.00  0.00    +0.000 C 
ATOM      3  C   UNL     1     -12.279   5.974  26.585  0.00  0.00    +0.000 C 
ENDBRANCH   1   3
BRANCH   1   4
ATOM      4  C   UNL     1     -14.438   4.777  26.374  0.00  0.00    +0.000 C 
ATOM      5  C   UNL     1     -13.960   3.723  27.048  0.00  0.00    +0.000 C 
ENDBRANCH   1   4
TORSDOF 2
ENDMDL
MODEL 8
REMARK VINA RESULT:    -2.405      2.529      4.114
REMARK INTER + INTRA:          -2.704
REMARK INTER:                  -2.640
REMARK INTRA:                  -0.064
REMARK UNBOUND:                -0.018
REMARK  Name = C:\Users\sofiya chavarekar\OneDrive\Assignment- Module 1\PROJECT(AI-based drug target identification for SDH-related rare disorders)\Data\Ligands\PDB\Ligand_0005.pdb
REMARK  2 active torsions:
REMARK  status: ('A' for Active; 'I' for Inactive)
REMARK    1  A    between atoms: C_2  and  C_3
REMARK    2  A    between atoms: C_3  and  C_4
REMARK                            x       y       z     vdW  Elec       q    Type
REMARK                         _______ _______ _______ _____ _____    ______ ____
ROOT
ATOM      1  C   UNL     1     -12.441   6.562  26.242  0.00  0.00    +0.000 C 
ENDROOT
BRANCH   1   3
ATOM      2  C   UNL     1     -13.416   4.333  26.871  0.00  0.00    +0.000 C 
ATOM      3  C   UNL     1     -13.075   5.588  27.192  0.00  0.00    +0.000 C 
ENDBRANCH   1   3
BRANCH   1   4
ATOM      4  C   UNL     1     -13.455   7.520  25.688  0.00  0.00    +0.000 C 
ATOM      5  C   UNL     1     -14.636   7.787  26.262  0.00  0.00    +0.000 C 
ENDBRANCH   1   4
TORSDOF 2
ENDMDL
MODEL 9
REMARK VINA RESULT:    -2.210     13.054     13.406
REMARK INTER + INTRA:          -2.487
REMARK INTER:                  -2.422
REMARK INTRA:                  -0.064
REMARK UNBOUND:                -0.018
REMARK  Name = C:\Users\sofiya chavarekar\OneDrive\Assignment- Module 1\PROJECT(AI-based drug target identification for SDH-related rare disorders)\Data\Ligands\PDB\Ligand_0005.pdb
REMARK  2 active torsions:
REMARK  status: ('A' for Active; 'I' for Inactive)
REMARK    1  A    between atoms: C_2  and  C_3
REMARK    2  A    between atoms: C_3  and  C_4
REMARK                            x       y       z     vdW  Elec       q    Type
REMARK                         _______ _______ _______ _____ _____    ______ ____
ROOT
ATOM      1  C   UNL     1     -20.091  -3.475  21.432  0.00  0.00    +0.000 C 
ENDROOT
BRANCH   1   3
ATOM      2  C   UNL     1     -19.999  -5.978  21.235  0.00  0.00    +0.000 C 
ATOM      3  C   UNL     1     -19.849  -4.859  21.957  0.00  0.00    +0.000 C 
ENDBRANCH   1   3
BRANCH   1   4
ATOM      4  C   UNL     1     -18.955  -2.556  21.777  0.00  0.00    +0.000 C 
ATOM      5  C   UNL     1     -18.078  -2.776  22.765  0.00  0.00    +0.000 C 
ENDBRANCH   1   4
TORSDOF 2
ENDMDL
