MODEL 1
REMARK VINA RESULT:    -2.418      0.000      0.000
REMARK INTER + INTRA:          -2.418
REMARK INTER:                  -2.418
REMARK INTRA:                   0.000
REMARK UNBOUND:                 0.000
REMARK  Name = C:\Users\sofiya chavarekar\OneDrive\Assignment- Module 1\PROJECT(AI-based drug target identification for SDH-related rare disorders)\Data\Ligands\PDB\Ligand_0035.pdb
REMARK  0 active torsions:
REMARK  status: ('A' for Active; 'I' for Inactive)
REMARK                            x       y       z     vdW  Elec       q    Type
REMARK                         _______ _______ _______ _____ _____    ______ ____
ROOT
ATOM      1 BR   UNL     1     -13.347   7.063  25.984  0.00  0.00    +0.000 Br
ATOM      2  C   UNL     1     -12.174   5.637  26.163  0.00  0.00    +0.000 C 
ATOM      3  C   UNL     1     -10.924   5.639  25.698  0.00  0.00    +0.000 C 
ATOM      4 BR   UNL     1      -9.752   4.213  25.876  0.00  0.00    +0.000 Br
ENDROOT
TORSDOF 0
ENDMDL
MODEL 2
REMARK VINA RESULT:    -2.411      0.152      3.381
REMARK INTER + INTRA:          -2.411
REMARK INTER:                  -2.411
REMARK INTRA:                   0.000
REMARK UNBOUND:                 0.000
REMARK  Name = C:\Users\sofiya chavarekar\OneDrive\Assignment- Module 1\PROJECT(AI-based drug target identification for SDH-related rare disorders)\Data\Ligands\PDB\Ligand_0035.pdb
REMARK  0 active torsions:
REMARK  status: ('A' for Active; 'I' for Inactive)
REMARK                            x       y       z     vdW  Elec       q    Type
REMARK                         _______ _______ _______ _____ _____    ______ ____
ROOT
ATOM      1 BR   UNL     1      -9.838   4.339  25.871  0.00  0.00    +0.000 Br
ATOM      2  C   UNL     1     -11.024   5.756  25.716  0.00  0.00    +0.000 C 
ATOM      3  C   UNL     1     -12.296   5.710  26.116  0.00  0.00    +0.000 C 
ATOM      4 BR   UNL     1     -13.481   7.127  25.960  0.00  0.00    +0.000 Br
ENDROOT
TORSDOF 0
ENDMDL
MODEL 3
REMARK VINA RESULT:    -2.237      1.434      1.650
REMARK INTER + INTRA:          -2.237
REMARK INTER:                  -2.237
REMARK INTRA:                   0.000
REMARK UNBOUND:                 0.000
REMARK  Name = C:\Users\sofiya chavarekar\OneDrive\Assignment- Module 1\PROJECT(AI-based drug target identification for SDH-related rare disorders)\Data\Ligands\PDB\Ligand_0035.pdb
REMARK  0 active torsions:
REMARK  status: ('A' for Active; 'I' for Inactive)
REMARK                            x       y       z     vdW  Elec       q    Type
REMARK                         _______ _______ _______ _____ _____    ______ ____
ROOT
ATOM      1 BR   UNL     1     -14.817   7.549  26.380  0.00  0.00    +0.000 Br
ATOM      2  C   UNL     1     -13.043   7.088  26.100  0.00  0.00    +0.000 C 
ATOM      3  C   UNL     1     -12.575   5.842  26.184  0.00  0.00    +0.000 C 
ATOM      4 BR   UNL     1     -10.800   5.382  25.905  0.00  0.00    +0.000 Br
ENDROOT
TORSDOF 0
ENDMDL
MODEL 4
REMARK VINA RESULT:    -2.203      1.835      3.858
REMARK INTER + INTRA:          -2.203
REMARK INTER:                  -2.203
REMARK INTRA:                   0.000
REMARK UNBOUND:                 0.000
REMARK  Name = C:\Users\sofiya chavarekar\OneDrive\Assignment- Module 1\PROJECT(AI-based drug target identification for SDH-related rare disorders)\Data\Ligands\PDB\Ligand_0035.pdb
REMARK  0 active torsions:
REMARK  status: ('A' for Active; 'I' for Inactive)
REMARK                            x       y       z     vdW  Elec       q    Type
REMARK                         _______ _______ _______ _____ _____    ______ ____
ROOT
ATOM      1 BR   UNL     1     -11.116   5.693  25.985  0.00  0.00    +0.000 Br
ATOM      2  C   UNL     1     -12.851   6.213  26.378  0.00  0.00    +0.000 C 
ATOM      3  C   UNL     1     -13.361   7.404  26.061  0.00  0.00    +0.000 C 
ATOM      4 BR   UNL     1     -15.097   7.924  26.455  0.00  0.00    +0.000 Br
ENDROOT
TORSDOF 0
ENDMDL
MODEL 5
REMARK VINA RESULT:    -1.972      2.396      3.464
REMARK INTER + INTRA:          -1.972
REMARK INTER:                  -1.972
REMARK INTRA:                   0.000
REMARK UNBOUND:                 0.000
REMARK  Name = C:\Users\sofiya chavarekar\OneDrive\Assignment- Module 1\PROJECT(AI-based drug target identification for SDH-related rare disorders)\Data\Ligands\PDB\Ligand_0035.pdb
REMARK  0 active torsions:
REMARK  status: ('A' for Active; 'I' for Inactive)
REMARK                            x       y       z     vdW  Elec       q    Type
REMARK                         _______ _______ _______ _____ _____    ______ ____
ROOT
ATOM      1 BR   UNL     1     -11.686   6.431  25.771  0.00  0.00    +0.000 Br
ATOM      2  C   UNL     1     -12.904   5.163  26.360  0.00  0.00    +0.000 C 
ATOM      3  C   UNL     1     -14.207   5.193  26.074  0.00  0.00    +0.000 C 
ATOM      4 BR   UNL     1     -15.424   3.925  26.664  0.00  0.00    +0.000 Br
ENDROOT
TORSDOF 0
ENDMDL
MODEL 6
REMARK VINA RESULT:    -1.914      2.377      2.747
REMARK INTER + INTRA:          -1.914
REMARK INTER:                  -1.914
REMARK INTRA:                   0.000
REMARK UNBOUND:                 0.000
REMARK  Name = C:\Users\sofiya chavarekar\OneDrive\Assignment- Module 1\PROJECT(AI-based drug target identification for SDH-related rare disorders)\Data\Ligands\PDB\Ligand_0035.pdb
REMARK  0 active torsions:
REMARK  status: ('A' for Active; 'I' for Inactive)
REMARK                            x       y       z     vdW  Elec       q    Type
REMARK                         _______ _______ _______ _____ _____    ______ ____
ROOT
ATOM      1 BR   UNL     1     -14.618   4.590  28.553  0.00  0.00    +0.000 Br
ATOM      2  C   UNL     1     -13.467   4.911  27.136  0.00  0.00    +0.000 C 
ATOM      3  C   UNL     1     -12.690   5.991  27.037  0.00  0.00    +0.000 C 
ATOM      4 BR   UNL     1     -11.540   6.311  25.619  0.00  0.00    +0.000 Br
ENDROOT
TORSDOF 0
ENDMDL
MODEL 7
REMARK VINA RESULT:    -1.872      3.479      5.219
REMARK INTER + INTRA:          -1.872
REMARK INTER:                  -1.872
REMARK INTRA:                   0.000
REMARK UNBOUND:                 0.000
REMARK  Name = C:\Users\sofiya chavarekar\OneDrive\Assignment- Module 1\PROJECT(AI-based drug target identification for SDH-related rare disorders)\Data\Ligands\PDB\Ligand_0035.pdb
REMARK  0 active torsions:
REMARK  status: ('A' for Active; 'I' for Inactive)
REMARK                            x       y       z     vdW  Elec       q    Type
REMARK                         _______ _______ _______ _____ _____    ______ ____
ROOT
ATOM      1 BR   UNL     1     -13.402   6.503  25.611  0.00  0.00    +0.000 Br
ATOM      2  C   UNL     1     -14.686   7.717  26.174  0.00  0.00    +0.000 C 
ATOM      3  C   UNL     1     -14.479   9.031  26.264  0.00  0.00    +0.000 C 
ATOM      4 BR   UNL     1     -15.762  10.245  26.828  0.00  0.00    +0.000 Br
ENDROOT
TORSDOF 0
ENDMDL
MODEL 8
REMARK VINA RESULT:    -1.851     11.059     11.314
REMARK INTER + INTRA:          -1.851
REMARK INTER:                  -1.851
REMARK INTRA:                   0.000
REMARK UNBOUND:                 0.000
REMARK  Name = C:\Users\sofiya chavarekar\OneDrive\Assignment- Module 1\PROJECT(AI-based drug target identification for SDH-related rare disorders)\Data\Ligands\PDB\Ligand_0035.pdb
REMARK  0 active torsions:
REMARK  status: ('A' for Active; 'I' for Inactive)
REMARK                            x       y       z     vdW  Elec       q    Type
REMARK                         _______ _______ _______ _____ _____    ______ ____
ROOT
ATOM      1 BR   UNL     1     -19.916  -1.603  31.180  0.00  0.00    +0.000 Br
ATOM      2  C   UNL     1     -18.220  -0.998  31.626  0.00  0.00    +0.000 C 
ATOM      3  C   UNL     1     -17.787  -0.853  32.878  0.00  0.00    +0.000 C 
ATOM      4 BR   UNL     1     -16.091  -0.248  33.323  0.00  0.00    +0.000 Br
ENDROOT
TORSDOF 0
ENDMDL
MODEL 9
REMARK VINA RESULT:    -1.741      7.218      8.088
REMARK INTER + INTRA:          -1.741
REMARK INTER:                  -1.741
REMARK INTRA:                   0.000
REMARK UNBOUND:                 0.000
REMARK  Name = C:\Users\sofiya chavarekar\OneDrive\Assignment- Module 1\PROJECT(AI-based drug target identification for SDH-related rare disorders)\Data\Ligands\PDB\Ligand_0035.pdb
REMARK  0 active torsions:
REMARK  status: ('A' for Active; 'I' for Inactive)
REMARK                            x       y       z     vdW  Elec       q    Type
REMARK                         _______ _______ _______ _____ _____    ______ ____
ROOT
ATOM      1 BR   UNL     1     -10.860  -2.136  29.066  0.00  0.00    +0.000 Br
ATOM      2  C   UNL     1     -12.382  -1.160  29.479  0.00  0.00    +0.000 C 
ATOM      3  C   UNL     1     -13.244  -0.704  28.570  0.00  0.00    +0.000 C 
ATOM      4 BR   UNL     1     -14.764   0.273  28.983  0.00  0.00    +0.000 Br
ENDROOT
TORSDOF 0
ENDMDL
