MODEL 1
REMARK VINA RESULT:    -5.604      0.000      0.000
REMARK INTER + INTRA:          -7.243
REMARK INTER:                  -6.751
REMARK INTRA:                  -0.492
REMARK UNBOUND:                -0.492
REMARK  Name = C:\Users\sofiya chavarekar\OneDrive\Assignment- Module 1\PROJECT(AI-based drug target identification for SDH-related rare disorders)\Data\Ligands\PDB\Ligand_0085.pdb
REMARK  4 active torsions:
REMARK  status: ('A' for Active; 'I' for Inactive)
REMARK    1  A    between atoms: C_2  and  O_3
REMARK    2  A    between atoms: C_2  and  C_4
REMARK    3  A    between atoms: C_4  and  C_5
REMARK    4  A    between atoms: C_4  and  C_11
REMARK                            x       y       z     vdW  Elec       q    Type
REMARK                         _______ _______ _______ _____ _____    ______ ____
ROOT
ATOM      1  C   UNL     1     -14.594   6.486  27.177  0.00  0.00    +0.000 C 
ENDROOT
BRANCH   1   2
ATOM      2  C   UNL     1     -15.433   5.213  27.057  0.00  0.00    +0.000 A 
ATOM      3  C   UNL     1     -15.177   4.229  26.088  0.00  0.00    +0.000 A 
ATOM      4  C   UNL     1     -16.005   3.111  25.963  0.00  0.00    +0.000 A 
ATOM      5  C   UNL     1     -17.097   2.948  26.810  0.00  0.00    +0.000 A 
ATOM      6  C   UNL     1     -17.353   3.899  27.796  0.00  0.00    +0.000 A 
ATOM      7  C   UNL     1     -16.523   5.016  27.925  0.00  0.00    +0.000 A 
ENDBRANCH   1   2
BRANCH   1   8
ATOM      8  C   UNL     1     -13.260   6.439  26.439  0.00  0.00    +0.000 A 
ATOM      9  C   UNL     1     -13.089   7.178  25.254  0.00  0.00    +0.000 A 
ATOM     10  C   UNL     1     -11.872   7.165  24.569  0.00  0.00    +0.000 A 
ATOM     11  C   UNL     1     -10.804   6.417  25.058  0.00  0.00    +0.000 A 
ATOM     12  C   UNL     1     -10.959   5.665  26.219  0.00  0.00    +0.000 A 
ATOM     13  C   UNL     1     -12.180   5.670  26.901  0.00  0.00    +0.000 A 
ENDBRANCH   1   8
BRANCH   1  15
ATOM     14  O   UNL     1     -16.274   7.866  26.027  0.00  0.00    +0.000 OA
ATOM     15  C   UNL     1     -15.385   7.766  26.865  0.00  0.00    +0.000 C 
BRANCH  15  16
ATOM     16  O   UNL     1     -15.005   8.844  27.601  0.00  0.00    +0.000 OA
ATOM     17  H   UNL     1     -15.615   9.093  28.321  0.00  0.00    +0.000 HD
ENDBRANCH  15  16
ENDBRANCH   1  15
TORSDOF 4
ENDMDL
MODEL 2
REMARK VINA RESULT:    -5.593      1.146      4.755
REMARK INTER + INTRA:          -7.229
REMARK INTER:                  -6.721
REMARK INTRA:                  -0.509
REMARK UNBOUND:                -0.492
REMARK  Name = C:\Users\sofiya chavarekar\OneDrive\Assignment- Module 1\PROJECT(AI-based drug target identification for SDH-related rare disorders)\Data\Ligands\PDB\Ligand_0085.pdb
REMARK  4 active torsions:
REMARK  status: ('A' for Active; 'I' for Inactive)
REMARK    1  A    between atoms: C_2  and  O_3
REMARK    2  A    between atoms: C_2  and  C_4
REMARK    3  A    between atoms: C_4  and  C_5
REMARK    4  A    between atoms: C_4  and  C_11
REMARK                            x       y       z     vdW  Elec       q    Type
REMARK                         _______ _______ _______ _____ _____    ______ ____
ROOT
ATOM      1  C   UNL     1     -14.934   5.844  26.272  0.00  0.00    +0.000 C 
ENDROOT
BRANCH   1   2
ATOM      2  C   UNL     1     -13.461   6.058  25.916  0.00  0.00    +0.000 A 
ATOM      3  C   UNL     1     -13.039   7.050  25.017  0.00  0.00    +0.000 A 
ATOM      4  C   UNL     1     -11.693   7.175  24.664  0.00  0.00    +0.000 A 
ATOM      5  C   UNL     1     -10.743   6.318  25.211  0.00  0.00    +0.000 A 
ATOM      6  C   UNL     1     -11.136   5.344  26.125  0.00  0.00    +0.000 A 
ATOM      7  C   UNL     1     -12.482   5.221  26.483  0.00  0.00    +0.000 A 
ENDBRANCH   1   2
BRANCH   1   8
ATOM      8  C   UNL     1     -15.226   4.547  27.019  0.00  0.00    +0.000 A 
ATOM      9  C   UNL     1     -15.537   3.379  26.299  0.00  0.00    +0.000 A 
ATOM     10  C   UNL     1     -15.791   2.176  26.960  0.00  0.00    +0.000 A 
ATOM     11  C   UNL     1     -15.736   2.117  28.350  0.00  0.00    +0.000 A 
ATOM     12  C   UNL     1     -15.448   3.266  29.081  0.00  0.00    +0.000 A 
ATOM     13  C   UNL     1     -15.201   4.474  28.421  0.00  0.00    +0.000 A 
ENDBRANCH   1   8
BRANCH   1  15
ATOM     14  O   UNL     1     -14.975   7.920  27.592  0.00  0.00    +0.000 OA
ATOM     15  C   UNL     1     -15.576   7.064  26.952  0.00  0.00    +0.000 C 
BRANCH  15  16
ATOM     16  O   UNL     1     -16.927   7.128  26.810  0.00  0.00    +0.000 OA
ATOM     17  H   UNL     1     -17.243   7.731  26.111  0.00  0.00    +0.000 HD
ENDBRANCH  15  16
ENDBRANCH   1  15
TORSDOF 4
ENDMDL
MODEL 3
REMARK VINA RESULT:    -5.501      0.927      4.825
REMARK INTER + INTRA:          -7.119
REMARK INTER:                  -6.757
REMARK INTRA:                  -0.362
REMARK UNBOUND:                -0.492
REMARK  Name = C:\Users\sofiya chavarekar\OneDrive\Assignment- Module 1\PROJECT(AI-based drug target identification for SDH-related rare disorders)\Data\Ligands\PDB\Ligand_0085.pdb
REMARK  4 active torsions:
REMARK  status: ('A' for Active; 'I' for Inactive)
REMARK    1  A    between atoms: C_2  and  O_3
REMARK    2  A    between atoms: C_2  and  C_4
REMARK    3  A    between atoms: C_4  and  C_5
REMARK    4  A    between atoms: C_4  and  C_11
REMARK                            x       y       z     vdW  Elec       q    Type
REMARK                         _______ _______ _______ _____ _____    ______ ____
ROOT
ATOM      1  C   UNL     1     -15.048   6.658  26.088  0.00  0.00    +0.000 C 
ENDROOT
BRANCH   1   2
ATOM      2  C   UNL     1     -13.566   6.330  25.900  0.00  0.00    +0.000 A 
ATOM      3  C   UNL     1     -12.924   5.305  26.615  0.00  0.00    +0.000 A 
ATOM      4  C   UNL     1     -11.554   5.076  26.468  0.00  0.00    +0.000 A 
ATOM      5  C   UNL     1     -10.802   5.857  25.596  0.00  0.00    +0.000 A 
ATOM      6  C   UNL     1     -11.424   6.861  24.857  0.00  0.00    +0.000 A 
ATOM      7  C   UNL     1     -12.796   7.088  24.999  0.00  0.00    +0.000 A 
ENDBRANCH   1   2
BRANCH   1   8
ATOM      8  C   UNL     1     -15.772   5.773  27.097  0.00  0.00    +0.000 A 
ATOM      9  C   UNL     1     -16.016   6.249  28.398  0.00  0.00    +0.000 A 
ATOM     10  C   UNL     1     -16.692   5.464  29.334  0.00  0.00    +0.000 A 
ATOM     11  C   UNL     1     -17.139   4.193  28.986  0.00  0.00    +0.000 A 
ATOM     12  C   UNL     1     -16.892   3.697  27.709  0.00  0.00    +0.000 A 
ATOM     13  C   UNL     1     -16.208   4.478  26.773  0.00  0.00    +0.000 A 
ENDBRANCH   1   8
BRANCH   1  15
ATOM     14  O   UNL     1     -14.699   8.863  27.123  0.00  0.00    +0.000 OA
ATOM     15  C   UNL     1     -15.311   8.153  26.333  0.00  0.00    +0.000 C 
BRANCH  15  16
ATOM     16  O   UNL     1     -16.332   8.663  25.593  0.00  0.00    +0.000 OA
ATOM     17  H   UNL     1     -16.802   9.417  25.997  0.00  0.00    +0.000 HD
ENDBRANCH  15  16
ENDBRANCH   1  15
TORSDOF 4
ENDMDL
MODEL 4
REMARK VINA RESULT:    -5.493      1.325      2.099
REMARK INTER + INTRA:          -7.109
REMARK INTER:                  -6.869
REMARK INTRA:                  -0.240
REMARK UNBOUND:                -0.492
REMARK  Name = C:\Users\sofiya chavarekar\OneDrive\Assignment- Module 1\PROJECT(AI-based drug target identification for SDH-related rare disorders)\Data\Ligands\PDB\Ligand_0085.pdb
REMARK  4 active torsions:
REMARK  status: ('A' for Active; 'I' for Inactive)
REMARK    1  A    between atoms: C_2  and  O_3
REMARK    2  A    between atoms: C_2  and  C_4
REMARK    3  A    between atoms: C_4  and  C_5
REMARK    4  A    between atoms: C_4  and  C_11
REMARK                            x       y       z     vdW  Elec       q    Type
REMARK                         _______ _______ _______ _____ _____    ______ ____
ROOT
ATOM      1  C   UNL     1     -13.234   6.330  26.943  0.00  0.00    +0.000 C 
ENDROOT
BRANCH   1   2
ATOM      2  C   UNL     1     -14.079   5.099  27.271  0.00  0.00    +0.000 A 
ATOM      3  C   UNL     1     -14.647   4.287  26.276  0.00  0.00    +0.000 A 
ATOM      4  C   UNL     1     -15.469   3.208  26.610  0.00  0.00    +0.000 A 
ATOM      5  C   UNL     1     -15.730   2.913  27.945  0.00  0.00    +0.000 A 
ATOM      6  C   UNL     1     -15.156   3.690  28.949  0.00  0.00    +0.000 A 
ATOM      7  C   UNL     1     -14.329   4.767  28.615  0.00  0.00    +0.000 A 
ENDBRANCH   1   2
BRANCH   1   8
ATOM      8  C   UNL     1     -12.016   6.050  26.069  0.00  0.00    +0.000 A 
ATOM      9  C   UNL     1     -11.185   4.953  26.357  0.00  0.00    +0.000 A 
ATOM     10  C   UNL     1     -10.073   4.665  25.561  0.00  0.00    +0.000 A 
ATOM     11  C   UNL     1      -9.775   5.468  24.463  0.00  0.00    +0.000 A 
ATOM     12  C   UNL     1     -10.575   6.569  24.173  0.00  0.00    +0.000 A 
ATOM     13  C   UNL     1     -11.683   6.863  24.973  0.00  0.00    +0.000 A 
ENDBRANCH   1   8
BRANCH   1  15
ATOM     14  O   UNL     1     -14.050   8.650  26.878  0.00  0.00    +0.000 OA
ATOM     15  C   UNL     1     -14.064   7.514  26.420  0.00  0.00    +0.000 C 
BRANCH  15  16
ATOM     16  O   UNL     1     -14.874   7.201  25.373  0.00  0.00    +0.000 OA
ATOM     17  H   UNL     1     -14.594   7.558  24.509  0.00  0.00    +0.000 HD
ENDBRANCH  15  16
ENDBRANCH   1  15
TORSDOF 4
ENDMDL
MODEL 5
REMARK VINA RESULT:    -5.403      2.107      3.872
REMARK INTER + INTRA:          -7.000
REMARK INTER:                  -6.672
REMARK INTRA:                  -0.328
REMARK UNBOUND:                -0.492
REMARK  Name = C:\Users\sofiya chavarekar\OneDrive\Assignment- Module 1\PROJECT(AI-based drug target identification for SDH-related rare disorders)\Data\Ligands\PDB\Ligand_0085.pdb
REMARK  4 active torsions:
REMARK  status: ('A' for Active; 'I' for Inactive)
REMARK    1  A    between atoms: C_2  and  O_3
REMARK    2  A    between atoms: C_2  and  C_4
REMARK    3  A    between atoms: C_4  and  C_5
REMARK    4  A    between atoms: C_4  and  C_11
REMARK                            x       y       z     vdW  Elec       q    Type
REMARK                         _______ _______ _______ _____ _____    ______ ____
ROOT
ATOM      1  C   UNL     1     -14.442   6.510  25.784  0.00  0.00    +0.000 C 
ENDROOT
BRANCH   1   2
ATOM      2  C   UNL     1     -14.532   5.209  26.583  0.00  0.00    +0.000 A 
ATOM      3  C   UNL     1     -15.099   4.038  26.054  0.00  0.00    +0.000 A 
ATOM      4  C   UNL     1     -15.227   2.886  26.834  0.00  0.00    +0.000 A 
ATOM      5  C   UNL     1     -14.781   2.879  28.152  0.00  0.00    +0.000 A 
ATOM      6  C   UNL     1     -14.191   4.022  28.688  0.00  0.00    +0.000 A 
ATOM      7  C   UNL     1     -14.059   5.173  27.907  0.00  0.00    +0.000 A 
ENDBRANCH   1   2
BRANCH   1   8
ATOM      8  C   UNL     1     -15.181   7.691  26.405  0.00  0.00    +0.000 A 
ATOM      9  C   UNL     1     -16.491   7.520  26.889  0.00  0.00    +0.000 A 
ATOM     10  C   UNL     1     -17.182   8.581  27.477  0.00  0.00    +0.000 A 
ATOM     11  C   UNL     1     -16.576   9.829  27.595  0.00  0.00    +0.000 A 
ATOM     12  C   UNL     1     -15.288  10.023  27.106  0.00  0.00    +0.000 A 
ATOM     13  C   UNL     1     -14.597   8.964  26.509  0.00  0.00    +0.000 A 
ENDBRANCH   1   8
BRANCH   1  15
ATOM     14  O   UNL     1     -11.999   6.649  26.044  0.00  0.00    +0.000 OA
ATOM     15  C   UNL     1     -13.003   6.874  25.379  0.00  0.00    +0.000 C 
BRANCH  15  16
ATOM     16  O   UNL     1     -12.911   7.512  24.182  0.00  0.00    +0.000 OA
ATOM     17  H   UNL     1     -12.046   7.922  23.994  0.00  0.00    +0.000 HD
ENDBRANCH  15  16
ENDBRANCH   1  15
TORSDOF 4
ENDMDL
MODEL 6
REMARK VINA RESULT:    -5.092      2.126      5.239
REMARK INTER + INTRA:          -6.626
REMARK INTER:                  -6.837
REMARK INTRA:                   0.211
REMARK UNBOUND:                -0.492
REMARK  Name = C:\Users\sofiya chavarekar\OneDrive\Assignment- Module 1\PROJECT(AI-based drug target identification for SDH-related rare disorders)\Data\Ligands\PDB\Ligand_0085.pdb
REMARK  4 active torsions:
REMARK  status: ('A' for Active; 'I' for Inactive)
REMARK    1  A    between atoms: C_2  and  O_3
REMARK    2  A    between atoms: C_2  and  C_4
REMARK    3  A    between atoms: C_4  and  C_5
REMARK    4  A    between atoms: C_4  and  C_11
REMARK                            x       y       z     vdW  Elec       q    Type
REMARK                         _______ _______ _______ _____ _____    ______ ____
ROOT
ATOM      1  C   UNL     1     -14.547   4.933  27.163  0.00  0.00    +0.000 C 
ENDROOT
BRANCH   1   2
ATOM      2  C   UNL     1     -13.360   5.505  26.386  0.00  0.00    +0.000 A 
ATOM      3  C   UNL     1     -12.046   5.047  26.573  0.00  0.00    +0.000 A 
ATOM      4  C   UNL     1     -10.976   5.637  25.896  0.00  0.00    +0.000 A 
ATOM      5  C   UNL     1     -11.200   6.688  25.011  0.00  0.00    +0.000 A 
ATOM      6  C   UNL     1     -12.499   7.139  24.790  0.00  0.00    +0.000 A 
ATOM      7  C   UNL     1     -13.571   6.546  25.464  0.00  0.00    +0.000 A 
ENDBRANCH   1   2
BRANCH   1   8
ATOM      8  C   UNL     1     -15.736   5.879  27.295  0.00  0.00    +0.000 A 
ATOM      9  C   UNL     1     -17.038   5.357  27.397  0.00  0.00    +0.000 A 
ATOM     10  C   UNL     1     -18.141   6.202  27.535  0.00  0.00    +0.000 A 
ATOM     11  C   UNL     1     -17.962   7.582  27.579  0.00  0.00    +0.000 A 
ATOM     12  C   UNL     1     -16.683   8.118  27.461  0.00  0.00    +0.000 A 
ATOM     13  C   UNL     1     -15.579   7.274  27.314  0.00  0.00    +0.000 A 
ENDBRANCH   1   8
BRANCH   1  15
ATOM     14  O   UNL     1     -14.862   2.499  27.330  0.00  0.00    +0.000 OA
ATOM     15  C   UNL     1     -14.969   3.534  26.683  0.00  0.00    +0.000 C 
BRANCH  15  16
ATOM     16  O   UNL     1     -15.476   3.513  25.421  0.00  0.00    +0.000 OA
ATOM     17  H   UNL     1     -16.444   3.405  25.364  0.00  0.00    +0.000 HD
ENDBRANCH  15  16
ENDBRANCH   1  15
TORSDOF 4
ENDMDL
MODEL 7
REMARK VINA RESULT:    -4.949      6.747      8.832
REMARK INTER + INTRA:          -6.453
REMARK INTER:                  -5.841
REMARK INTRA:                  -0.612
REMARK UNBOUND:                -0.492
REMARK  Name = C:\Users\sofiya chavarekar\OneDrive\Assignment- Module 1\PROJECT(AI-based drug target identification for SDH-related rare disorders)\Data\Ligands\PDB\Ligand_0085.pdb
REMARK  4 active torsions:
REMARK  status: ('A' for Active; 'I' for Inactive)
REMARK    1  A    between atoms: C_2  and  O_3
REMARK    2  A    between atoms: C_2  and  C_4
REMARK    3  A    between atoms: C_4  and  C_5
REMARK    4  A    between atoms: C_4  and  C_11
REMARK                            x       y       z     vdW  Elec       q    Type
REMARK                         _______ _______ _______ _____ _____    ______ ____
ROOT
ATOM      1  C   UNL     1     -18.153   0.599  32.153  0.00  0.00    +0.000 C 
ENDROOT
BRANCH   1   2
ATOM      2  C   UNL     1     -18.030   1.727  33.179  0.00  0.00    +0.000 A 
ATOM      3  C   UNL     1     -16.801   2.332  33.489  0.00  0.00    +0.000 A 
ATOM      4  C   UNL     1     -16.713   3.313  34.479  0.00  0.00    +0.000 A 
ATOM      5  C   UNL     1     -17.852   3.717  35.170  0.00  0.00    +0.000 A 
ATOM      6  C   UNL     1     -19.085   3.149  34.858  0.00  0.00    +0.000 A 
ATOM      7  C   UNL     1     -19.175   2.170  33.864  0.00  0.00    +0.000 A 
ENDBRANCH   1   2
BRANCH   1   8
ATOM      8  C   UNL     1     -17.165   0.682  30.994  0.00  0.00    +0.000 A 
ATOM      9  C   UNL     1     -17.309   1.690  30.024  0.00  0.00    +0.000 A 
ATOM     10  C   UNL     1     -16.407   1.798  28.963  0.00  0.00    +0.000 A 
ATOM     11  C   UNL     1     -15.346   0.903  28.855  0.00  0.00    +0.000 A 
ATOM     12  C   UNL     1     -15.198  -0.112  29.795  0.00  0.00    +0.000 A 
ATOM     13  C   UNL     1     -16.105  -0.227  30.853  0.00  0.00    +0.000 A 
ENDBRANCH   1   8
BRANCH   1  15
ATOM     14  O   UNL     1     -17.522  -1.154  33.760  0.00  0.00    +0.000 OA
ATOM     15  C   UNL     1     -18.183  -0.800  32.791  0.00  0.00    +0.000 C 
BRANCH  15  16
ATOM     16  O   UNL     1     -19.020  -1.673  32.168  0.00  0.00    +0.000 OA
ATOM     17  H   UNL     1     -19.963  -1.422  32.175  0.00  0.00    +0.000 HD
ENDBRANCH  15  16
ENDBRANCH   1  15
TORSDOF 4
ENDMDL
MODEL 8
REMARK VINA RESULT:    -4.822      9.085     12.286
REMARK INTER + INTRA:          -6.301
REMARK INTER:                  -5.844
REMARK INTRA:                  -0.457
REMARK UNBOUND:                -0.492
REMARK  Name = C:\Users\sofiya chavarekar\OneDrive\Assignment- Module 1\PROJECT(AI-based drug target identification for SDH-related rare disorders)\Data\Ligands\PDB\Ligand_0085.pdb
REMARK  4 active torsions:
REMARK  status: ('A' for Active; 'I' for Inactive)
REMARK    1  A    between atoms: C_2  and  O_3
REMARK    2  A    between atoms: C_2  and  C_4
REMARK    3  A    between atoms: C_4  and  C_5
REMARK    4  A    between atoms: C_4  and  C_11
REMARK                            x       y       z     vdW  Elec       q    Type
REMARK                         _______ _______ _______ _____ _____    ______ ____
ROOT
ATOM      1  C   UNL     1     -19.712  -3.159  21.224  0.00  0.00    +0.000 C 
ENDROOT
BRANCH   1   2
ATOM      2  C   UNL     1     -19.058  -2.028  22.019  0.00  0.00    +0.000 A 
ATOM      3  C   UNL     1     -17.983  -2.246  22.895  0.00  0.00    +0.000 A 
ATOM      4  C   UNL     1     -17.452  -1.201  23.657  0.00  0.00    +0.000 A 
ATOM      5  C   UNL     1     -17.979   0.083  23.549  0.00  0.00    +0.000 A 
ATOM      6  C   UNL     1     -19.029   0.326  22.666  0.00  0.00    +0.000 A 
ATOM      7  C   UNL     1     -19.557  -0.717  21.900  0.00  0.00    +0.000 A 
ENDBRANCH   1   2
BRANCH   1   8
ATOM      8  C   UNL     1     -20.107  -4.375  22.056  0.00  0.00    +0.000 A 
ATOM      9  C   UNL     1     -19.915  -5.669  21.539  0.00  0.00    +0.000 A 
ATOM     10  C   UNL     1     -20.252  -6.798  22.288  0.00  0.00    +0.000 A 
ATOM     11  C   UNL     1     -20.783  -6.654  23.567  0.00  0.00    +0.000 A 
ATOM     12  C   UNL     1     -20.998  -5.382  24.088  0.00  0.00    +0.000 A 
ATOM     13  C   UNL     1     -20.669  -4.250  23.337  0.00  0.00    +0.000 A 
ENDBRANCH   1   8
BRANCH   1  15
ATOM     14  O   UNL     1     -22.040  -2.629  20.632  0.00  0.00    +0.000 OA
ATOM     15  C   UNL     1     -20.857  -2.680  20.317  0.00  0.00    +0.000 C 
BRANCH  15  16
ATOM     16  O   UNL     1     -20.458  -2.314  19.070  0.00  0.00    +0.000 OA
ATOM     17  H   UNL     1     -21.003  -2.662  18.339  0.00  0.00    +0.000 HD
ENDBRANCH  15  16
ENDBRANCH   1  15
TORSDOF 4
ENDMDL
MODEL 9
REMARK VINA RESULT:    -4.805      2.321      3.154
REMARK INTER + INTRA:          -6.280
REMARK INTER:                  -6.216
REMARK INTRA:                  -0.064
REMARK UNBOUND:                -0.492
REMARK  Name = C:\Users\sofiya chavarekar\OneDrive\Assignment- Module 1\PROJECT(AI-based drug target identification for SDH-related rare disorders)\Data\Ligands\PDB\Ligand_0085.pdb
REMARK  4 active torsions:
REMARK  status: ('A' for Active; 'I' for Inactive)
REMARK    1  A    between atoms: C_2  and  O_3
REMARK    2  A    between atoms: C_2  and  C_4
REMARK    3  A    between atoms: C_4  and  C_5
REMARK    4  A    between atoms: C_4  and  C_11
REMARK                            x       y       z     vdW  Elec       q    Type
REMARK                         _______ _______ _______ _____ _____    ______ ____
ROOT
ATOM      1  C   UNL     1     -14.672   3.669  27.857  0.00  0.00    +0.000 C 
ENDROOT
BRANCH   1   2
ATOM      2  C   UNL     1     -15.484   2.654  27.050  0.00  0.00    +0.000 A 
ATOM      3  C   UNL     1     -16.406   3.040  26.063  0.00  0.00    +0.000 A 
ATOM      4  C   UNL     1     -17.180   2.090  25.392  0.00  0.00    +0.000 A 
ATOM      5  C   UNL     1     -17.039   0.737  25.686  0.00  0.00    +0.000 A 
ATOM      6  C   UNL     1     -16.112   0.331  26.642  0.00  0.00    +0.000 A 
ATOM      7  C   UNL     1     -15.333   1.280  27.311  0.00  0.00    +0.000 A 
ENDBRANCH   1   2
BRANCH   1   8
ATOM      8  C   UNL     1     -13.887   4.669  27.014  0.00  0.00    +0.000 A 
ATOM      9  C   UNL     1     -12.488   4.561  26.924  0.00  0.00    +0.000 A 
ATOM     10  C   UNL     1     -11.748   5.454  26.145  0.00  0.00    +0.000 A 
ATOM     11  C   UNL     1     -12.394   6.467  25.441  0.00  0.00    +0.000 A 
ATOM     12  C   UNL     1     -13.777   6.600  25.532  0.00  0.00    +0.000 A 
ATOM     13  C   UNL     1     -14.518   5.713  26.318  0.00  0.00    +0.000 A 
ENDBRANCH   1   8
BRANCH   1  15
ATOM     14  O   UNL     1     -15.989   5.474  28.888  0.00  0.00    +0.000 OA
ATOM     15  C   UNL     1     -15.489   4.357  28.963  0.00  0.00    +0.000 C 
BRANCH  15  16
ATOM     16  O   UNL     1     -15.613   3.619  30.098  0.00  0.00    +0.000 OA
ATOM     17  H   UNL     1     -16.158   2.814  30.013  0.00  0.00    +0.000 HD
ENDBRANCH  15  16
ENDBRANCH   1  15
TORSDOF 4
ENDMDL
