MODEL 1
REMARK VINA RESULT:    -4.007      0.000      0.000
REMARK INTER + INTRA:          -4.007
REMARK INTER:                  -4.007
REMARK INTRA:                   0.000
REMARK UNBOUND:                 0.000
REMARK  Name = C:\Users\sofiya chavarekar\OneDrive\Assignment- Module 1\PROJECT(AI-based drug target identification for SDH-related rare disorders)\Data\Ligands\PDB\Ligand_0040.pdb
REMARK  0 active torsions:
REMARK  status: ('A' for Active; 'I' for Inactive)
REMARK                            x       y       z     vdW  Elec       q    Type
REMARK                         _______ _______ _______ _____ _____    ______ ____
ROOT
ATOM      1 BR   UNL     1      -9.716   4.383  25.832  0.00  0.00    +0.000 Br
ATOM      2  C   UNL     1     -11.280   5.445  25.785  0.00  0.00    +0.000 A 
ATOM      3  C   UNL     1     -11.323   6.575  24.968  0.00  0.00    +0.000 A 
ATOM      4  C   UNL     1     -12.469   7.370  24.944  0.00  0.00    +0.000 A 
ATOM      5  C   UNL     1     -13.570   7.030  25.730  0.00  0.00    +0.000 A 
ATOM      6  C   UNL     1     -13.521   5.890  26.534  0.00  0.00    +0.000 A 
ATOM      7 BR   UNL     1     -15.021   5.420  27.584  0.00  0.00    +0.000 Br
ATOM      8  C   UNL     1     -12.377   5.093  26.570  0.00  0.00    +0.000 A 
ENDROOT
TORSDOF 0
ENDMDL
MODEL 2
REMARK VINA RESULT:    -3.965      1.938      2.717
REMARK INTER + INTRA:          -3.965
REMARK INTER:                  -3.965
REMARK INTRA:                   0.000
REMARK UNBOUND:                 0.000
REMARK  Name = C:\Users\sofiya chavarekar\OneDrive\Assignment- Module 1\PROJECT(AI-based drug target identification for SDH-related rare disorders)\Data\Ligands\PDB\Ligand_0040.pdb
REMARK  0 active torsions:
REMARK  status: ('A' for Active; 'I' for Inactive)
REMARK                            x       y       z     vdW  Elec       q    Type
REMARK                         _______ _______ _______ _____ _____    ______ ____
ROOT
ATOM      1 BR   UNL     1     -10.868   5.395  25.907  0.00  0.00    +0.000 Br
ATOM      2  C   UNL     1     -12.668   5.891  26.203  0.00  0.00    +0.000 A 
ATOM      3  C   UNL     1     -13.618   4.907  26.477  0.00  0.00    +0.000 A 
ATOM      4  C   UNL     1     -14.951   5.269  26.678  0.00  0.00    +0.000 A 
ATOM      5  C   UNL     1     -15.328   6.610  26.614  0.00  0.00    +0.000 A 
ATOM      6  C   UNL     1     -14.365   7.588  26.354  0.00  0.00    +0.000 A 
ATOM      7 BR   UNL     1     -14.874   9.407  26.286  0.00  0.00    +0.000 Br
ATOM      8  C   UNL     1     -13.033   7.235  26.144  0.00  0.00    +0.000 A 
ENDROOT
TORSDOF 0
ENDMDL
MODEL 3
REMARK VINA RESULT:    -3.931      1.968      4.046
REMARK INTER + INTRA:          -3.931
REMARK INTER:                  -3.931
REMARK INTRA:                   0.000
REMARK UNBOUND:                 0.000
REMARK  Name = C:\Users\sofiya chavarekar\OneDrive\Assignment- Module 1\PROJECT(AI-based drug target identification for SDH-related rare disorders)\Data\Ligands\PDB\Ligand_0040.pdb
REMARK  0 active torsions:
REMARK  status: ('A' for Active; 'I' for Inactive)
REMARK                            x       y       z     vdW  Elec       q    Type
REMARK                         _______ _______ _______ _____ _____    ______ ____
ROOT
ATOM      1 BR   UNL     1     -14.861   9.469  26.239  0.00  0.00    +0.000 Br
ATOM      2  C   UNL     1     -14.360   7.651  26.376  0.00  0.00    +0.000 A 
ATOM      3  C   UNL     1     -15.319   6.694  26.711  0.00  0.00    +0.000 A 
ATOM      4  C   UNL     1     -14.949   5.354  26.830  0.00  0.00    +0.000 A 
ATOM      5  C   UNL     1     -13.625   4.973  26.606  0.00  0.00    +0.000 A 
ATOM      6  C   UNL     1     -12.677   5.937  26.258  0.00  0.00    +0.000 A 
ATOM      7 BR   UNL     1     -10.889   5.417  25.936  0.00  0.00    +0.000 Br
ATOM      8  C   UNL     1     -13.037   7.280  26.144  0.00  0.00    +0.000 A 
ENDROOT
TORSDOF 0
ENDMDL
MODEL 4
REMARK VINA RESULT:    -3.823      2.087      2.639
REMARK INTER + INTRA:          -3.823
REMARK INTER:                  -3.823
REMARK INTRA:                   0.000
REMARK UNBOUND:                 0.000
REMARK  Name = C:\Users\sofiya chavarekar\OneDrive\Assignment- Module 1\PROJECT(AI-based drug target identification for SDH-related rare disorders)\Data\Ligands\PDB\Ligand_0040.pdb
REMARK  0 active torsions:
REMARK  status: ('A' for Active; 'I' for Inactive)
REMARK                            x       y       z     vdW  Elec       q    Type
REMARK                         _______ _______ _______ _____ _____    ______ ____
ROOT
ATOM      1 BR   UNL     1     -13.880   3.164  27.602  0.00  0.00    +0.000 Br
ATOM      2  C   UNL     1     -13.704   4.901  26.877  0.00  0.00    +0.000 A 
ATOM      3  C   UNL     1     -12.469   5.320  26.381  0.00  0.00    +0.000 A 
ATOM      4  C   UNL     1     -12.332   6.608  25.861  0.00  0.00    +0.000 A 
ATOM      5  C   UNL     1     -13.430   7.468  25.830  0.00  0.00    +0.000 A 
ATOM      6  C   UNL     1     -14.664   7.033  26.316  0.00  0.00    +0.000 A 
ATOM      7 BR   UNL     1     -16.155   8.194  26.257  0.00  0.00    +0.000 Br
ATOM      8  C   UNL     1     -14.809   5.751  26.845  0.00  0.00    +0.000 A 
ENDROOT
TORSDOF 0
ENDMDL
MODEL 5
REMARK VINA RESULT:    -3.814      2.104      3.486
REMARK INTER + INTRA:          -3.814
REMARK INTER:                  -3.814
REMARK INTRA:                   0.000
REMARK UNBOUND:                 0.000
REMARK  Name = C:\Users\sofiya chavarekar\OneDrive\Assignment- Module 1\PROJECT(AI-based drug target identification for SDH-related rare disorders)\Data\Ligands\PDB\Ligand_0040.pdb
REMARK  0 active torsions:
REMARK  status: ('A' for Active; 'I' for Inactive)
REMARK                            x       y       z     vdW  Elec       q    Type
REMARK                         _______ _______ _______ _____ _____    ______ ____
ROOT
ATOM      1 BR   UNL     1     -16.167   8.210  26.305  0.00  0.00    +0.000 Br
ATOM      2  C   UNL     1     -14.683   7.040  26.352  0.00  0.00    +0.000 A 
ATOM      3  C   UNL     1     -13.446   7.475  25.876  0.00  0.00    +0.000 A 
ATOM      4  C   UNL     1     -12.353   6.608  25.893  0.00  0.00    +0.000 A 
ATOM      5  C   UNL     1     -12.497   5.313  26.392  0.00  0.00    +0.000 A 
ATOM      6  C   UNL     1     -13.737   4.893  26.878  0.00  0.00    +0.000 A 
ATOM      7 BR   UNL     1     -13.926   3.145  27.571  0.00  0.00    +0.000 Br
ATOM      8  C   UNL     1     -14.836   5.750  26.858  0.00  0.00    +0.000 A 
ENDROOT
TORSDOF 0
ENDMDL
MODEL 6
REMARK VINA RESULT:    -3.521      1.697      3.725
REMARK INTER + INTRA:          -3.521
REMARK INTER:                  -3.521
REMARK INTRA:                   0.000
REMARK UNBOUND:                 0.000
REMARK  Name = C:\Users\sofiya chavarekar\OneDrive\Assignment- Module 1\PROJECT(AI-based drug target identification for SDH-related rare disorders)\Data\Ligands\PDB\Ligand_0040.pdb
REMARK  0 active torsions:
REMARK  status: ('A' for Active; 'I' for Inactive)
REMARK                            x       y       z     vdW  Elec       q    Type
REMARK                         _______ _______ _______ _____ _____    ______ ____
ROOT
ATOM      1 BR   UNL     1     -16.086   3.439  27.034  0.00  0.00    +0.000 Br
ATOM      2  C   UNL     1     -15.069   5.005  26.738  0.00  0.00    +0.000 A 
ATOM      3  C   UNL     1     -15.684   6.254  26.829  0.00  0.00    +0.000 A 
ATOM      4  C   UNL     1     -14.940   7.411  26.593  0.00  0.00    +0.000 A 
ATOM      5  C   UNL     1     -13.585   7.317  26.276  0.00  0.00    +0.000 A 
ATOM      6  C   UNL     1     -12.977   6.062  26.201  0.00  0.00    +0.000 A 
ATOM      7 BR   UNL     1     -11.137   5.937  25.789  0.00  0.00    +0.000 Br
ATOM      8  C   UNL     1     -13.714   4.900  26.427  0.00  0.00    +0.000 A 
ENDROOT
TORSDOF 0
ENDMDL
MODEL 7
REMARK VINA RESULT:    -3.504      1.625      2.120
REMARK INTER + INTRA:          -3.504
REMARK INTER:                  -3.504
REMARK INTRA:                   0.000
REMARK UNBOUND:                 0.000
REMARK  Name = C:\Users\sofiya chavarekar\OneDrive\Assignment- Module 1\PROJECT(AI-based drug target identification for SDH-related rare disorders)\Data\Ligands\PDB\Ligand_0040.pdb
REMARK  0 active torsions:
REMARK  status: ('A' for Active; 'I' for Inactive)
REMARK                            x       y       z     vdW  Elec       q    Type
REMARK                         _______ _______ _______ _____ _____    ______ ____
ROOT
ATOM      1 BR   UNL     1     -10.849   6.615  24.928  0.00  0.00    +0.000 Br
ATOM      2  C   UNL     1     -12.487   6.240  25.795  0.00  0.00    +0.000 A 
ATOM      3  C   UNL     1     -13.505   7.195  25.790  0.00  0.00    +0.000 A 
ATOM      4  C   UNL     1     -14.708   6.928  26.445  0.00  0.00    +0.000 A 
ATOM      5  C   UNL     1     -14.893   5.707  27.093  0.00  0.00    +0.000 A 
ATOM      6  C   UNL     1     -13.873   4.754  27.080  0.00  0.00    +0.000 A 
ATOM      7 BR   UNL     1     -14.133   3.093  27.944  0.00  0.00    +0.000 Br
ATOM      8  C   UNL     1     -12.664   5.015  26.436  0.00  0.00    +0.000 A 
ENDROOT
TORSDOF 0
ENDMDL
MODEL 8
REMARK VINA RESULT:    -3.307      3.617      4.592
REMARK INTER + INTRA:          -3.307
REMARK INTER:                  -3.307
REMARK INTRA:                   0.000
REMARK UNBOUND:                 0.000
REMARK  Name = C:\Users\sofiya chavarekar\OneDrive\Assignment- Module 1\PROJECT(AI-based drug target identification for SDH-related rare disorders)\Data\Ligands\PDB\Ligand_0040.pdb
REMARK  0 active torsions:
REMARK  status: ('A' for Active; 'I' for Inactive)
REMARK                            x       y       z     vdW  Elec       q    Type
REMARK                         _______ _______ _______ _____ _____    ______ ____
ROOT
ATOM      1 BR   UNL     1     -12.948   5.549  26.829  0.00  0.00    +0.000 Br
ATOM      2  C   UNL     1     -14.105   4.054  26.870  0.00  0.00    +0.000 A 
ATOM      3  C   UNL     1     -15.266   4.059  26.097  0.00  0.00    +0.000 A 
ATOM      4  C   UNL     1     -16.131   2.965  26.139  0.00  0.00    +0.000 A 
ATOM      5  C   UNL     1     -15.829   1.867  26.945  0.00  0.00    +0.000 A 
ATOM      6  C   UNL     1     -14.657   1.867  27.704  0.00  0.00    +0.000 A 
ATOM      7 BR   UNL     1     -14.239   0.372  28.782  0.00  0.00    +0.000 Br
ATOM      8  C   UNL     1     -13.791   2.960  27.675  0.00  0.00    +0.000 A 
ENDROOT
TORSDOF 0
ENDMDL
MODEL 9
REMARK VINA RESULT:    -3.236      2.417      4.480
REMARK INTER + INTRA:          -3.236
REMARK INTER:                  -3.236
REMARK INTRA:                   0.000
REMARK UNBOUND:                 0.000
REMARK  Name = C:\Users\sofiya chavarekar\OneDrive\Assignment- Module 1\PROJECT(AI-based drug target identification for SDH-related rare disorders)\Data\Ligands\PDB\Ligand_0040.pdb
REMARK  0 active torsions:
REMARK  status: ('A' for Active; 'I' for Inactive)
REMARK                            x       y       z     vdW  Elec       q    Type
REMARK                         _______ _______ _______ _____ _____    ______ ____
ROOT
ATOM      1 BR   UNL     1     -17.770   5.661  27.682  0.00  0.00    +0.000 Br
ATOM      2  C   UNL     1     -16.276   6.642  27.064  0.00  0.00    +0.000 A 
ATOM      3  C   UNL     1     -16.433   7.979  26.696  0.00  0.00    +0.000 A 
ATOM      4  C   UNL     1     -15.335   8.700  26.223  0.00  0.00    +0.000 A 
ATOM      5  C   UNL     1     -14.086   8.087  26.128  0.00  0.00    +0.000 A 
ATOM      6  C   UNL     1     -13.938   6.753  26.512  0.00  0.00    +0.000 A 
ATOM      7 BR   UNL     1     -12.240   5.930  26.400  0.00  0.00    +0.000 Br
ATOM      8  C   UNL     1     -15.030   6.022  26.979  0.00  0.00    +0.000 A 
ENDROOT
TORSDOF 0
ENDMDL
