MODEL 1
REMARK VINA RESULT:    -5.340      0.000      0.000
REMARK INTER + INTRA:          -5.994
REMARK INTER:                  -5.809
REMARK INTRA:                  -0.186
REMARK UNBOUND:                -0.186
REMARK  Name = C:\Users\sofiya chavarekar\OneDrive\Assignment- Module 1\PROJECT(AI-based drug target identification for SDH-related rare disorders)\Data\Ligands\PDB\Ligand_0071.pdb
REMARK  5 active torsions:
REMARK  status: ('A' for Active; 'I' for Inactive)
REMARK    1  A    between atoms: C_1  and  C_2
REMARK    2  A    between atoms: C_5  and  C_6
REMARK    3  A    between atoms: C_6  and  C_7
REMARK    4  A    between atoms: C_6  and  C_8
REMARK    5  A    between atoms: C_9  and  O_10
REMARK                            x       y       z     vdW  Elec       q    Type
REMARK                         _______ _______ _______ _____ _____    ______ ____
ROOT
ATOM      1  C   UNL     1      -9.924   4.573  25.971  0.00  0.00    +0.000 C 
ATOM      2  C   UNL     1     -11.184   5.385  25.997  0.00  0.00    +0.000 A 
ATOM      3  C   UNL     1     -12.132   5.225  27.008  0.00  0.00    +0.000 A 
ATOM      4  C   UNL     1     -13.305   5.990  27.003  0.00  0.00    +0.000 A 
ATOM      5  C   UNL     1     -13.573   6.928  25.986  0.00  0.00    +0.000 A 
ATOM      6  C   UNL     1     -12.601   7.084  24.984  0.00  0.00    +0.000 A 
ATOM      7  C   UNL     1     -11.429   6.323  24.991  0.00  0.00    +0.000 A 
ENDROOT
BRANCH   5   8
ATOM      8  C   UNL     1     -14.876   7.712  26.026  0.00  0.00    +0.000 C 
ATOM      9  C   UNL     1     -15.976   6.950  26.775  0.00  0.00    +0.000 C 
ATOM     10  C   UNL     1     -14.672   9.116  26.606  0.00  0.00    +0.000 C 
ENDBRANCH   5   8
BRANCH   6  11
ATOM     11  O   UNL     1     -12.699   7.956  23.937  0.00  0.00    +0.000 OA
ATOM     12  H   UNL     1     -12.751   7.475  23.101  0.00  0.00    +0.000 HD
ENDBRANCH   6  11
TORSDOF 2
ENDMDL
MODEL 2
REMARK VINA RESULT:    -4.809      1.611      2.412
REMARK INTER + INTRA:          -5.416
REMARK INTER:                  -5.258
REMARK INTRA:                  -0.158
REMARK UNBOUND:                -0.186
REMARK  Name = C:\Users\sofiya chavarekar\OneDrive\Assignment- Module 1\PROJECT(AI-based drug target identification for SDH-related rare disorders)\Data\Ligands\PDB\Ligand_0071.pdb
REMARK  5 active torsions:
REMARK  status: ('A' for Active; 'I' for Inactive)
REMARK    1  A    between atoms: C_1  and  C_2
REMARK    2  A    between atoms: C_5  and  C_6
REMARK    3  A    between atoms: C_6  and  C_7
REMARK    4  A    between atoms: C_6  and  C_8
REMARK    5  A    between atoms: C_9  and  O_10
REMARK                            x       y       z     vdW  Elec       q    Type
REMARK                         _______ _______ _______ _____ _____    ______ ____
ROOT
ATOM      1  C   UNL     1     -10.041   4.792  25.421  0.00  0.00    +0.000 C 
ATOM      2  C   UNL     1     -11.258   5.604  25.749  0.00  0.00    +0.000 A 
ATOM      3  C   UNL     1     -11.640   6.692  24.966  0.00  0.00    +0.000 A 
ATOM      4  C   UNL     1     -12.776   7.440  25.301  0.00  0.00    +0.000 A 
ATOM      5  C   UNL     1     -13.558   7.131  26.431  0.00  0.00    +0.000 A 
ATOM      6  C   UNL     1     -13.165   6.024  27.201  0.00  0.00    +0.000 A 
ATOM      7  C   UNL     1     -12.033   5.276  26.865  0.00  0.00    +0.000 A 
ENDROOT
BRANCH   5   8
ATOM      8  C   UNL     1     -14.768   7.995  26.754  0.00  0.00    +0.000 C 
ATOM      9  C   UNL     1     -14.681   9.370  26.081  0.00  0.00    +0.000 C 
ATOM     10  C   UNL     1     -16.079   7.282  26.403  0.00  0.00    +0.000 C 
ENDBRANCH   5   8
BRANCH   6  11
ATOM     11  O   UNL     1     -13.819   5.583  28.317  0.00  0.00    +0.000 OA
ATOM     12  H   UNL     1     -14.698   5.256  28.086  0.00  0.00    +0.000 HD
ENDBRANCH   6  11
TORSDOF 2
ENDMDL
MODEL 3
REMARK VINA RESULT:    -4.663      1.986      2.508
REMARK INTER + INTRA:          -5.257
REMARK INTER:                  -5.105
REMARK INTRA:                  -0.153
REMARK UNBOUND:                -0.186
REMARK  Name = C:\Users\sofiya chavarekar\OneDrive\Assignment- Module 1\PROJECT(AI-based drug target identification for SDH-related rare disorders)\Data\Ligands\PDB\Ligand_0071.pdb
REMARK  5 active torsions:
REMARK  status: ('A' for Active; 'I' for Inactive)
REMARK    1  A    between atoms: C_1  and  C_2
REMARK    2  A    between atoms: C_5  and  C_6
REMARK    3  A    between atoms: C_6  and  C_7
REMARK    4  A    between atoms: C_6  and  C_8
REMARK    5  A    between atoms: C_9  and  O_10
REMARK                            x       y       z     vdW  Elec       q    Type
REMARK                         _______ _______ _______ _____ _____    ______ ____
ROOT
ATOM      1  C   UNL     1     -10.696   5.205  25.936  0.00  0.00    +0.000 C 
ATOM      2  C   UNL     1     -12.097   5.700  26.134  0.00  0.00    +0.000 A 
ATOM      3  C   UNL     1     -12.450   7.019  25.851  0.00  0.00    +0.000 A 
ATOM      4  C   UNL     1     -13.765   7.458  26.055  0.00  0.00    +0.000 A 
ATOM      5  C   UNL     1     -14.762   6.598  26.556  0.00  0.00    +0.000 A 
ATOM      6  C   UNL     1     -14.391   5.270  26.823  0.00  0.00    +0.000 A 
ATOM      7  C   UNL     1     -13.080   4.832  26.617  0.00  0.00    +0.000 A 
ENDROOT
BRANCH   5   8
ATOM      8  C   UNL     1     -16.166   7.141  26.776  0.00  0.00    +0.000 C 
ATOM      9  C   UNL     1     -16.483   7.315  28.266  0.00  0.00    +0.000 C 
ATOM     10  C   UNL     1     -16.394   8.443  25.999  0.00  0.00    +0.000 C 
ENDBRANCH   5   8
BRANCH   6  11
ATOM     11  O   UNL     1     -15.237   4.309  27.298  0.00  0.00    +0.000 OA
ATOM     12  H   UNL     1     -15.866   4.692  27.924  0.00  0.00    +0.000 HD
ENDBRANCH   6  11
TORSDOF 2
ENDMDL
MODEL 4
REMARK VINA RESULT:    -4.434      2.005      4.191
REMARK INTER + INTRA:          -5.009
REMARK INTER:                  -4.823
REMARK INTRA:                  -0.186
REMARK UNBOUND:                -0.186
REMARK  Name = C:\Users\sofiya chavarekar\OneDrive\Assignment- Module 1\PROJECT(AI-based drug target identification for SDH-related rare disorders)\Data\Ligands\PDB\Ligand_0071.pdb
REMARK  5 active torsions:
REMARK  status: ('A' for Active; 'I' for Inactive)
REMARK    1  A    between atoms: C_1  and  C_2
REMARK    2  A    between atoms: C_5  and  C_6
REMARK    3  A    between atoms: C_6  and  C_7
REMARK    4  A    between atoms: C_6  and  C_8
REMARK    5  A    between atoms: C_9  and  O_10
REMARK                            x       y       z     vdW  Elec       q    Type
REMARK                         _______ _______ _______ _____ _____    ______ ____
ROOT
ATOM      1  C   UNL     1     -17.451   4.162  27.431  0.00  0.00    +0.000 C 
ATOM      2  C   UNL     1     -16.138   4.783  27.061  0.00  0.00    +0.000 A 
ATOM      3  C   UNL     1     -15.093   4.020  26.539  0.00  0.00    +0.000 A 
ATOM      4  C   UNL     1     -13.873   4.624  26.211  0.00  0.00    +0.000 A 
ATOM      5  C   UNL     1     -13.654   6.003  26.402  0.00  0.00    +0.000 A 
ATOM      6  C   UNL     1     -14.722   6.757  26.916  0.00  0.00    +0.000 A 
ATOM      7  C   UNL     1     -15.940   6.155  27.241  0.00  0.00    +0.000 A 
ENDROOT
BRANCH   5   8
ATOM      8  C   UNL     1     -12.299   6.595  26.046  0.00  0.00    +0.000 C 
ATOM      9  C   UNL     1     -11.181   5.549  26.131  0.00  0.00    +0.000 C 
ATOM     10  C   UNL     1     -12.324   7.276  24.673  0.00  0.00    +0.000 C 
ENDBRANCH   5   8
BRANCH   6  11
ATOM     11  O   UNL     1     -14.680   8.103  27.149  0.00  0.00    +0.000 OA
ATOM     12  H   UNL     1     -13.933   8.502  26.685  0.00  0.00    +0.000 HD
ENDBRANCH   6  11
TORSDOF 2
ENDMDL
MODEL 5
REMARK VINA RESULT:    -4.428     10.764     11.645
REMARK INTER + INTRA:          -5.002
REMARK INTER:                  -4.819
REMARK INTRA:                  -0.183
REMARK UNBOUND:                -0.186
REMARK  Name = C:\Users\sofiya chavarekar\OneDrive\Assignment- Module 1\PROJECT(AI-based drug target identification for SDH-related rare disorders)\Data\Ligands\PDB\Ligand_0071.pdb
REMARK  5 active torsions:
REMARK  status: ('A' for Active; 'I' for Inactive)
REMARK    1  A    between atoms: C_1  and  C_2
REMARK    2  A    between atoms: C_5  and  C_6
REMARK    3  A    between atoms: C_6  and  C_7
REMARK    4  A    between atoms: C_6  and  C_8
REMARK    5  A    between atoms: C_9  and  O_10
REMARK                            x       y       z     vdW  Elec       q    Type
REMARK                         _______ _______ _______ _____ _____    ______ ____
ROOT
ATOM      1  C   UNL     1     -17.674   0.942  24.207  0.00  0.00    +0.000 C 
ATOM      2  C   UNL     1     -18.245  -0.178  23.392  0.00  0.00    +0.000 A 
ATOM      3  C   UNL     1     -19.177   0.059  22.381  0.00  0.00    +0.000 A 
ATOM      4  C   UNL     1     -19.702  -1.008  21.640  0.00  0.00    +0.000 A 
ATOM      5  C   UNL     1     -19.322  -2.342  21.892  0.00  0.00    +0.000 A 
ATOM      6  C   UNL     1     -18.374  -2.559  22.904  0.00  0.00    +0.000 A 
ATOM      7  C   UNL     1     -17.848  -1.495  23.641  0.00  0.00    +0.000 A 
ENDROOT
BRANCH   5   8
ATOM      8  C   UNL     1     -19.946  -3.457  21.066  0.00  0.00    +0.000 C 
ATOM      9  C   UNL     1     -21.059  -4.180  21.834  0.00  0.00    +0.000 C 
ATOM     10  C   UNL     1     -20.442  -2.944  19.710  0.00  0.00    +0.000 C 
ENDBRANCH   5   8
BRANCH   6  11
ATOM     11  O   UNL     1     -17.891  -3.785  23.264  0.00  0.00    +0.000 OA
ATOM     12  H   UNL     1     -18.608  -4.352  23.577  0.00  0.00    +0.000 HD
ENDBRANCH   6  11
TORSDOF 2
ENDMDL
MODEL 6
REMARK VINA RESULT:    -4.349      1.968      4.075
REMARK INTER + INTRA:          -4.916
REMARK INTER:                  -4.723
REMARK INTRA:                  -0.193
REMARK UNBOUND:                -0.186
REMARK  Name = C:\Users\sofiya chavarekar\OneDrive\Assignment- Module 1\PROJECT(AI-based drug target identification for SDH-related rare disorders)\Data\Ligands\PDB\Ligand_0071.pdb
REMARK  5 active torsions:
REMARK  status: ('A' for Active; 'I' for Inactive)
REMARK    1  A    between atoms: C_1  and  C_2
REMARK    2  A    between atoms: C_5  and  C_6
REMARK    3  A    between atoms: C_6  and  C_7
REMARK    4  A    between atoms: C_6  and  C_8
REMARK    5  A    between atoms: C_9  and  O_10
REMARK                            x       y       z     vdW  Elec       q    Type
REMARK                         _______ _______ _______ _____ _____    ______ ____
ROOT
ATOM      1  C   UNL     1     -14.588   9.698  26.383  0.00  0.00    +0.000 C 
ATOM      2  C   UNL     1     -14.567   8.200  26.409  0.00  0.00    +0.000 A 
ATOM      3  C   UNL     1     -15.698   7.461  26.754  0.00  0.00    +0.000 A 
ATOM      4  C   UNL     1     -15.647   6.062  26.780  0.00  0.00    +0.000 A 
ATOM      5  C   UNL     1     -14.466   5.358  26.473  0.00  0.00    +0.000 A 
ATOM      6  C   UNL     1     -13.341   6.118  26.115  0.00  0.00    +0.000 A 
ATOM      7  C   UNL     1     -13.392   7.514  26.086  0.00  0.00    +0.000 A 
ENDROOT
BRANCH   5   8
ATOM      8  C   UNL     1     -14.471   3.838  26.541  0.00  0.00    +0.000 C 
ATOM      9  C   UNL     1     -13.991   3.328  27.905  0.00  0.00    +0.000 C 
ATOM     10  C   UNL     1     -15.844   3.262  26.178  0.00  0.00    +0.000 C 
ENDBRANCH   5   8
BRANCH   6  11
ATOM     11  O   UNL     1     -12.126   5.593  25.777  0.00  0.00    +0.000 OA
ATOM     12  H   UNL     1     -11.598   6.245  25.299  0.00  0.00    +0.000 HD
ENDBRANCH   6  11
TORSDOF 2
ENDMDL
MODEL 7
REMARK VINA RESULT:    -4.206      1.699      4.527
REMARK INTER + INTRA:          -4.760
REMARK INTER:                  -4.634
REMARK INTRA:                  -0.127
REMARK UNBOUND:                -0.186
REMARK  Name = C:\Users\sofiya chavarekar\OneDrive\Assignment- Module 1\PROJECT(AI-based drug target identification for SDH-related rare disorders)\Data\Ligands\PDB\Ligand_0071.pdb
REMARK  5 active torsions:
REMARK  status: ('A' for Active; 'I' for Inactive)
REMARK    1  A    between atoms: C_1  and  C_2
REMARK    2  A    between atoms: C_5  and  C_6
REMARK    3  A    between atoms: C_6  and  C_7
REMARK    4  A    between atoms: C_6  and  C_8
REMARK    5  A    between atoms: C_9  and  O_10
REMARK                            x       y       z     vdW  Elec       q    Type
REMARK                         _______ _______ _______ _____ _____    ______ ____
ROOT
ATOM      1  C   UNL     1     -17.089   7.716  27.149  0.00  0.00    +0.000 C 
ATOM      2  C   UNL     1     -15.727   7.281  26.699  0.00  0.00    +0.000 A 
ATOM      3  C   UNL     1     -14.790   8.199  26.223  0.00  0.00    +0.000 A 
ATOM      4  C   UNL     1     -13.528   7.765  25.800  0.00  0.00    +0.000 A 
ATOM      5  C   UNL     1     -13.164   6.404  25.830  0.00  0.00    +0.000 A 
ATOM      6  C   UNL     1     -14.116   5.497  26.324  0.00  0.00    +0.000 A 
ATOM      7  C   UNL     1     -15.374   5.930  26.749  0.00  0.00    +0.000 A 
ENDROOT
BRANCH   5   8
ATOM      8  C   UNL     1     -11.785   5.994  25.336  0.00  0.00    +0.000 C 
ATOM      9  C   UNL     1     -11.121   7.105  24.514  0.00  0.00    +0.000 C 
ATOM     10  C   UNL     1     -10.886   5.538  26.491  0.00  0.00    +0.000 C 
ENDBRANCH   5   8
BRANCH   6  11
ATOM     11  O   UNL     1     -13.919   4.149  26.432  0.00  0.00    +0.000 OA
ATOM     12  H   UNL     1     -14.724   3.671  26.194  0.00  0.00    +0.000 HD
ENDBRANCH   6  11
TORSDOF 2
ENDMDL
MODEL 8
REMARK VINA RESULT:    -4.072     10.500     11.465
REMARK INTER + INTRA:          -4.615
REMARK INTER:                  -4.430
REMARK INTRA:                  -0.185
REMARK UNBOUND:                -0.186
REMARK  Name = C:\Users\sofiya chavarekar\OneDrive\Assignment- Module 1\PROJECT(AI-based drug target identification for SDH-related rare disorders)\Data\Ligands\PDB\Ligand_0071.pdb
REMARK  5 active torsions:
REMARK  status: ('A' for Active; 'I' for Inactive)
REMARK    1  A    between atoms: C_1  and  C_2
REMARK    2  A    between atoms: C_5  and  C_6
REMARK    3  A    between atoms: C_6  and  C_7
REMARK    4  A    between atoms: C_6  and  C_8
REMARK    5  A    between atoms: C_9  and  O_10
REMARK                            x       y       z     vdW  Elec       q    Type
REMARK                         _______ _______ _______ _____ _____    ______ ____
ROOT
ATOM      1  C   UNL     1     -20.937  -2.696  19.622  0.00  0.00    +0.000 C 
ATOM      2  C   UNL     1     -20.154  -2.234  20.814  0.00  0.00    +0.000 A 
ATOM      3  C   UNL     1     -20.170  -0.900  21.223  0.00  0.00    +0.000 A 
ATOM      4  C   UNL     1     -19.421  -0.494  22.335  0.00  0.00    +0.000 A 
ATOM      5  C   UNL     1     -18.629  -1.401  23.066  0.00  0.00    +0.000 A 
ATOM      6  C   UNL     1     -18.636  -2.741  22.647  0.00  0.00    +0.000 A 
ATOM      7  C   UNL     1     -19.385  -3.148  21.539  0.00  0.00    +0.000 A 
ENDROOT
BRANCH   5   8
ATOM      8  C   UNL     1     -17.822  -0.892  24.251  0.00  0.00    +0.000 C 
ATOM      9  C   UNL     1     -17.485   0.598  24.113  0.00  0.00    +0.000 C 
ATOM     10  C   UNL     1     -18.527  -1.185  25.580  0.00  0.00    +0.000 C 
ENDBRANCH   5   8
BRANCH   6  11
ATOM     11  O   UNL     1     -17.935  -3.746  23.251  0.00  0.00    +0.000 OA
ATOM     12  H   UNL     1     -17.021  -3.475  23.405  0.00  0.00    +0.000 HD
ENDBRANCH   6  11
TORSDOF 2
ENDMDL
MODEL 9
REMARK VINA RESULT:    -4.003      2.713      4.662
REMARK INTER + INTRA:          -4.540
REMARK INTER:                  -4.370
REMARK INTRA:                  -0.170
REMARK UNBOUND:                -0.186
REMARK  Name = C:\Users\sofiya chavarekar\OneDrive\Assignment- Module 1\PROJECT(AI-based drug target identification for SDH-related rare disorders)\Data\Ligands\PDB\Ligand_0071.pdb
REMARK  5 active torsions:
REMARK  status: ('A' for Active; 'I' for Inactive)
REMARK    1  A    between atoms: C_1  and  C_2
REMARK    2  A    between atoms: C_5  and  C_6
REMARK    3  A    between atoms: C_6  and  C_7
REMARK    4  A    between atoms: C_6  and  C_8
REMARK    5  A    between atoms: C_9  and  O_10
REMARK                            x       y       z     vdW  Elec       q    Type
REMARK                         _______ _______ _______ _____ _____    ______ ____
ROOT
ATOM      1  C   UNL     1     -15.120   9.988  26.077  0.00  0.00    +0.000 C 
ATOM      2  C   UNL     1     -15.071   8.513  26.335  0.00  0.00    +0.000 A 
ATOM      3  C   UNL     1     -13.917   7.769  26.087  0.00  0.00    +0.000 A 
ATOM      4  C   UNL     1     -13.902   6.389  26.329  0.00  0.00    +0.000 A 
ATOM      5  C   UNL     1     -15.036   5.709  26.814  0.00  0.00    +0.000 A 
ATOM      6  C   UNL     1     -16.184   6.477  27.069  0.00  0.00    +0.000 A 
ATOM      7  C   UNL     1     -16.199   7.854  26.832  0.00  0.00    +0.000 A 
ENDROOT
BRANCH   5   8
ATOM      8  C   UNL     1     -14.961   4.206  27.035  0.00  0.00    +0.000 C 
ATOM      9  C   UNL     1     -15.697   3.431  25.935  0.00  0.00    +0.000 C 
ATOM     10  C   UNL     1     -13.511   3.730  27.182  0.00  0.00    +0.000 C 
ENDBRANCH   5   8
BRANCH   6  11
ATOM     11  O   UNL     1     -17.360   5.977  27.552  0.00  0.00    +0.000 OA
ATOM     12  H   UNL     1     -17.207   5.482  28.367  0.00  0.00    +0.000 HD
ENDBRANCH   6  11
TORSDOF 2
ENDMDL
