MODEL 1
REMARK VINA RESULT:    -2.893      0.000      0.000
REMARK INTER + INTRA:          -3.062
REMARK INTER:                  -3.062
REMARK INTRA:                   0.000
REMARK UNBOUND:                 0.000
REMARK  Name = C:\Users\sofiya chavarekar\OneDrive\Assignment- Module 1\PROJECT(AI-based drug target identification for SDH-related rare disorders)\Data\Ligands\PDB\Ligand_0096.pdb
REMARK  5 active torsions:
REMARK  status: ('A' for Active; 'I' for Inactive)
REMARK    1  A    between atoms: C_1  and  O_2
REMARK    2  A    between atoms: O_2  and  C_3
REMARK    3  A    between atoms: C_3  and  C_4
REMARK    4  A    between atoms: C_3  and  C_5
REMARK    5  A    between atoms: C_3  and  C_6
REMARK                            x       y       z     vdW  Elec       q    Type
REMARK                         _______ _______ _______ _____ _____    ______ ____
ROOT
ATOM      1  C   UNL     1     -13.157   6.060  26.597  0.00  0.00    +0.000 C 
ATOM      2  C   UNL     1     -11.768   5.585  26.154  0.00  0.00    +0.000 C 
ATOM      3  C   UNL     1     -14.212   5.111  26.011  0.00  0.00    +0.000 C 
ATOM      4  C   UNL     1     -13.436   7.480  26.088  0.00  0.00    +0.000 C 
ENDROOT
BRANCH   1   6
ATOM      5  C   UNL     1     -14.235   4.999  28.505  0.00  0.00    +0.000 C 
ATOM      6  O   UNL     1     -13.315   5.965  28.022  0.00  0.00    +0.000 OA
ENDBRANCH   1   6
TORSDOF 1
ENDMDL
MODEL 2
REMARK VINA RESULT:    -2.767      1.457      2.542
REMARK INTER + INTRA:          -2.929
REMARK INTER:                  -2.929
REMARK INTRA:                   0.000
REMARK UNBOUND:                 0.000
REMARK  Name = C:\Users\sofiya chavarekar\OneDrive\Assignment- Module 1\PROJECT(AI-based drug target identification for SDH-related rare disorders)\Data\Ligands\PDB\Ligand_0096.pdb
REMARK  5 active torsions:
REMARK  status: ('A' for Active; 'I' for Inactive)
REMARK    1  A    between atoms: C_1  and  O_2
REMARK    2  A    between atoms: O_2  and  C_3
REMARK    3  A    between atoms: C_3  and  C_4
REMARK    4  A    between atoms: C_3  and  C_5
REMARK    5  A    between atoms: C_3  and  C_6
REMARK                            x       y       z     vdW  Elec       q    Type
REMARK                         _______ _______ _______ _____ _____    ______ ____
ROOT
ATOM      1  C   UNL     1     -13.454   6.515  26.267  0.00  0.00    +0.000 C 
ATOM      2  C   UNL     1     -12.964   7.077  24.927  0.00  0.00    +0.000 C 
ATOM      3  C   UNL     1     -12.243   5.989  27.052  0.00  0.00    +0.000 C 
ATOM      4  C   UNL     1     -14.438   5.359  26.048  0.00  0.00    +0.000 C 
ENDROOT
BRANCH   1   6
ATOM      5  C   UNL     1     -14.494   8.710  26.436  0.00  0.00    +0.000 C 
ATOM      6  O   UNL     1     -14.019   7.545  27.093  0.00  0.00    +0.000 OA
ENDBRANCH   1   6
TORSDOF 1
ENDMDL
MODEL 3
REMARK VINA RESULT:    -2.742      1.336      2.327
REMARK INTER + INTRA:          -2.903
REMARK INTER:                  -2.903
REMARK INTRA:                   0.000
REMARK UNBOUND:                 0.000
REMARK  Name = C:\Users\sofiya chavarekar\OneDrive\Assignment- Module 1\PROJECT(AI-based drug target identification for SDH-related rare disorders)\Data\Ligands\PDB\Ligand_0096.pdb
REMARK  5 active torsions:
REMARK  status: ('A' for Active; 'I' for Inactive)
REMARK    1  A    between atoms: C_1  and  O_2
REMARK    2  A    between atoms: O_2  and  C_3
REMARK    3  A    between atoms: C_3  and  C_4
REMARK    4  A    between atoms: C_3  and  C_5
REMARK    5  A    between atoms: C_3  and  C_6
REMARK                            x       y       z     vdW  Elec       q    Type
REMARK                         _______ _______ _______ _____ _____    ______ ____
ROOT
ATOM      1  C   UNL     1     -13.309   6.344  26.270  0.00  0.00    +0.000 C 
ATOM      2  C   UNL     1     -14.278   5.174  26.063  0.00  0.00    +0.000 C 
ATOM      3  C   UNL     1     -13.161   7.103  24.943  0.00  0.00    +0.000 C 
ATOM      4  C   UNL     1     -11.928   5.840  26.705  0.00  0.00    +0.000 C 
ENDROOT
BRANCH   1   6
ATOM      5  C   UNL     1     -15.118   7.848  26.900  0.00  0.00    +0.000 C 
ATOM      6  O   UNL     1     -13.840   7.307  27.195  0.00  0.00    +0.000 OA
ENDBRANCH   1   6
TORSDOF 1
ENDMDL
MODEL 4
REMARK VINA RESULT:    -2.536      3.189      3.967
REMARK INTER + INTRA:          -2.685
REMARK INTER:                  -2.685
REMARK INTRA:                   0.000
REMARK UNBOUND:                 0.000
REMARK  Name = C:\Users\sofiya chavarekar\OneDrive\Assignment- Module 1\PROJECT(AI-based drug target identification for SDH-related rare disorders)\Data\Ligands\PDB\Ligand_0096.pdb
REMARK  5 active torsions:
REMARK  status: ('A' for Active; 'I' for Inactive)
REMARK    1  A    between atoms: C_1  and  O_2
REMARK    2  A    between atoms: O_2  and  C_3
REMARK    3  A    between atoms: C_3  and  C_4
REMARK    4  A    between atoms: C_3  and  C_5
REMARK    5  A    between atoms: C_3  and  C_6
REMARK                            x       y       z     vdW  Elec       q    Type
REMARK                         _______ _______ _______ _____ _____    ______ ____
ROOT
ATOM      1  C   UNL     1     -15.143   9.005  26.491  0.00  0.00    +0.000 C 
ATOM      2  C   UNL     1     -13.987   8.057  26.153  0.00  0.00    +0.000 C 
ATOM      3  C   UNL     1     -16.465   8.331  26.092  0.00  0.00    +0.000 C 
ATOM      4  C   UNL     1     -15.012  10.324  25.721  0.00  0.00    +0.000 C 
ENDROOT
BRANCH   1   6
ATOM      5  C   UNL     1     -16.263  10.107  28.351  0.00  0.00    +0.000 C 
ATOM      6  O   UNL     1     -15.246   9.223  27.907  0.00  0.00    +0.000 OA
ENDBRANCH   1   6
TORSDOF 1
ENDMDL
MODEL 5
REMARK VINA RESULT:    -2.466      1.284      2.894
REMARK INTER + INTRA:          -2.610
REMARK INTER:                  -2.610
REMARK INTRA:                   0.000
REMARK UNBOUND:                 0.000
REMARK  Name = C:\Users\sofiya chavarekar\OneDrive\Assignment- Module 1\PROJECT(AI-based drug target identification for SDH-related rare disorders)\Data\Ligands\PDB\Ligand_0096.pdb
REMARK  5 active torsions:
REMARK  status: ('A' for Active; 'I' for Inactive)
REMARK    1  A    between atoms: C_1  and  O_2
REMARK    2  A    between atoms: O_2  and  C_3
REMARK    3  A    between atoms: C_3  and  C_4
REMARK    4  A    between atoms: C_3  and  C_5
REMARK    5  A    between atoms: C_3  and  C_6
REMARK                            x       y       z     vdW  Elec       q    Type
REMARK                         _______ _______ _______ _____ _____    ______ ____
ROOT
ATOM      1  C   UNL     1     -14.568   5.724  27.373  0.00  0.00    +0.000 C 
ATOM      2  C   UNL     1     -15.901   6.481  27.389  0.00  0.00    +0.000 C 
ATOM      3  C   UNL     1     -14.521   4.835  26.121  0.00  0.00    +0.000 C 
ATOM      4  C   UNL     1     -14.431   4.832  28.614  0.00  0.00    +0.000 C 
ENDROOT
BRANCH   1   6
ATOM      5  C   UNL     1     -13.435   7.455  26.088  0.00  0.00    +0.000 C 
ATOM      6  O   UNL     1     -13.455   6.622  27.238  0.00  0.00    +0.000 OA
ENDBRANCH   1   6
TORSDOF 1
ENDMDL
MODEL 6
REMARK VINA RESULT:    -2.316     10.609     11.781
REMARK INTER + INTRA:          -2.451
REMARK INTER:                  -2.451
REMARK INTRA:                   0.000
REMARK UNBOUND:                 0.000
REMARK  Name = C:\Users\sofiya chavarekar\OneDrive\Assignment- Module 1\PROJECT(AI-based drug target identification for SDH-related rare disorders)\Data\Ligands\PDB\Ligand_0096.pdb
REMARK  5 active torsions:
REMARK  status: ('A' for Active; 'I' for Inactive)
REMARK    1  A    between atoms: C_1  and  O_2
REMARK    2  A    between atoms: O_2  and  C_3
REMARK    3  A    between atoms: C_3  and  C_4
REMARK    4  A    between atoms: C_3  and  C_5
REMARK    5  A    between atoms: C_3  and  C_6
REMARK                            x       y       z     vdW  Elec       q    Type
REMARK                         _______ _______ _______ _____ _____    ______ ____
ROOT
ATOM      1  C   UNL     1     -20.048  -2.219  21.266  0.00  0.00    +0.000 C 
ATOM      2  C   UNL     1     -20.218  -3.083  20.010  0.00  0.00    +0.000 C 
ATOM      3  C   UNL     1     -18.783  -2.673  22.009  0.00  0.00    +0.000 C 
ATOM      4  C   UNL     1     -21.252  -2.376  22.204  0.00  0.00    +0.000 C 
ENDROOT
BRANCH   1   6
ATOM      5  C   UNL     1     -19.436   0.025  21.986  0.00  0.00    +0.000 C 
ATOM      6  O   UNL     1     -19.812  -0.843  20.928  0.00  0.00    +0.000 OA
ENDBRANCH   1   6
TORSDOF 1
ENDMDL
MODEL 7
REMARK VINA RESULT:    -2.291     10.602     11.751
REMARK INTER + INTRA:          -2.424
REMARK INTER:                  -2.424
REMARK INTRA:                   0.000
REMARK UNBOUND:                 0.000
REMARK  Name = C:\Users\sofiya chavarekar\OneDrive\Assignment- Module 1\PROJECT(AI-based drug target identification for SDH-related rare disorders)\Data\Ligands\PDB\Ligand_0096.pdb
REMARK  5 active torsions:
REMARK  status: ('A' for Active; 'I' for Inactive)
REMARK    1  A    between atoms: C_1  and  O_2
REMARK    2  A    between atoms: O_2  and  C_3
REMARK    3  A    between atoms: C_3  and  C_4
REMARK    4  A    between atoms: C_3  and  C_5
REMARK    5  A    between atoms: C_3  and  C_6
REMARK                            x       y       z     vdW  Elec       q    Type
REMARK                         _______ _______ _______ _____ _____    ______ ____
ROOT
ATOM      1  C   UNL     1     -19.416  -2.091  21.927  0.00  0.00    +0.000 C 
ATOM      2  C   UNL     1     -18.206  -2.720  22.628  0.00  0.00    +0.000 C 
ATOM      3  C   UNL     1     -19.359  -0.568  22.118  0.00  0.00    +0.000 C 
ATOM      4  C   UNL     1     -20.728  -2.613  22.527  0.00  0.00    +0.000 C 
ENDROOT
BRANCH   1   6
ATOM      5  C   UNL     1     -20.513  -2.856  19.892  0.00  0.00    +0.000 C 
ATOM      6  O   UNL     1     -19.363  -2.293  20.506  0.00  0.00    +0.000 OA
ENDBRANCH   1   6
TORSDOF 1
ENDMDL
MODEL 8
REMARK VINA RESULT:    -2.245      8.891      9.531
REMARK INTER + INTRA:          -2.377
REMARK INTER:                  -2.377
REMARK INTRA:                   0.000
REMARK UNBOUND:                 0.000
REMARK  Name = C:\Users\sofiya chavarekar\OneDrive\Assignment- Module 1\PROJECT(AI-based drug target identification for SDH-related rare disorders)\Data\Ligands\PDB\Ligand_0096.pdb
REMARK  5 active torsions:
REMARK  status: ('A' for Active; 'I' for Inactive)
REMARK    1  A    between atoms: C_1  and  O_2
REMARK    2  A    between atoms: O_2  and  C_3
REMARK    3  A    between atoms: C_3  and  C_4
REMARK    4  A    between atoms: C_3  and  C_5
REMARK    5  A    between atoms: C_3  and  C_6
REMARK                            x       y       z     vdW  Elec       q    Type
REMARK                         _______ _______ _______ _____ _____    ______ ____
ROOT
ATOM      1  C   UNL     1     -18.080   0.606  32.974  0.00  0.00    +0.000 C 
ATOM      2  C   UNL     1     -17.652  -0.856  33.145  0.00  0.00    +0.000 C 
ATOM      3  C   UNL     1     -18.522   0.823  31.519  0.00  0.00    +0.000 C 
ATOM      4  C   UNL     1     -16.915   1.556  33.280  0.00  0.00    +0.000 C 
ENDROOT
BRANCH   1   6
ATOM      5  C   UNL     1     -19.500   2.282  34.025  0.00  0.00    +0.000 C 
ATOM      6  O   UNL     1     -19.238   0.911  33.768  0.00  0.00    +0.000 OA
ENDBRANCH   1   6
TORSDOF 1
ENDMDL
MODEL 9
REMARK VINA RESULT:    -2.230      9.524     10.709
REMARK INTER + INTRA:          -2.361
REMARK INTER:                  -2.361
REMARK INTRA:                   0.000
REMARK UNBOUND:                 0.000
REMARK  Name = C:\Users\sofiya chavarekar\OneDrive\Assignment- Module 1\PROJECT(AI-based drug target identification for SDH-related rare disorders)\Data\Ligands\PDB\Ligand_0096.pdb
REMARK  5 active torsions:
REMARK  status: ('A' for Active; 'I' for Inactive)
REMARK    1  A    between atoms: C_1  and  O_2
REMARK    2  A    between atoms: O_2  and  C_3
REMARK    3  A    between atoms: C_3  and  C_4
REMARK    4  A    between atoms: C_3  and  C_5
REMARK    5  A    between atoms: C_3  and  C_6
REMARK                            x       y       z     vdW  Elec       q    Type
REMARK                         _______ _______ _______ _____ _____    ______ ____
ROOT
ATOM      1  C   UNL     1     -19.574  -0.809  22.012  0.00  0.00    +0.000 C 
ATOM      2  C   UNL     1     -18.641  -0.059  22.970  0.00  0.00    +0.000 C 
ATOM      3  C   UNL     1     -20.974  -0.877  22.641  0.00  0.00    +0.000 C 
ATOM      4  C   UNL     1     -19.075  -2.239  21.770  0.00  0.00    +0.000 C 
ENDROOT
BRANCH   1   6
ATOM      5  C   UNL     1     -20.817   0.845  20.727  0.00  0.00    +0.000 C 
ATOM      6  O   UNL     1     -19.750  -0.091  20.781  0.00  0.00    +0.000 OA
ENDBRANCH   1   6
TORSDOF 1
ENDMDL
