MODEL 1
REMARK VINA RESULT:    -6.654      0.000      0.000
REMARK INTER + INTRA:          -7.185
REMARK INTER:                  -7.627
REMARK INTRA:                   0.442
REMARK UNBOUND:                 0.442
REMARK  Name = C:\Users\sofiya chavarekar\OneDrive\Assignment- Module 1\PROJECT(AI-based drug target identification for SDH-related rare disorders)\Data\Ligands\PDB\Ligand_0103.pdb
REMARK  5 active torsions:
REMARK  status: ('A' for Active; 'I' for Inactive)
REMARK    1  A    between atoms: C_1  and  C_2
REMARK    2  A    between atoms: C_15  and  C_16
REMARK    3  A    between atoms: C_17  and  C_18
REMARK    4  A    between atoms: C_18  and  C_20
REMARK    5  A    between atoms: C_20  and  O_21
REMARK                            x       y       z     vdW  Elec       q    Type
REMARK                         _______ _______ _______ _____ _____    ______ ____
ROOT
ATOM      1  C   UNL     1     -17.781   1.828  23.845  0.00  0.00    +0.000 C 
ATOM      2  C   UNL     1     -18.761   1.251  24.937  0.00  0.00    +0.000 C 
ATOM      3  C   UNL     1     -20.202   1.613  24.417  0.00  0.00    +0.000 C 
ATOM      4  C   UNL     1     -20.517   0.953  23.038  0.00  0.00    +0.000 C 
ATOM      5  C   UNL     1     -19.522  -0.129  22.635  0.00  0.00    +0.000 C 
ATOM      6  O   UNL     1     -19.249  -0.402  21.474  0.00  0.00    +0.000 OA
ATOM      7  C   UNL     1     -18.992  -0.951  23.748  0.00  0.00    +0.000 C 
ATOM      8  C   UNL     1     -18.883  -0.285  24.913  0.00  0.00    +0.000 C 
ATOM      9  C   UNL     1     -19.326  -1.048  26.144  0.00  0.00    +0.000 C 
ATOM     10  C   UNL     1     -19.459  -0.236  27.420  0.00  0.00    +0.000 C 
ATOM     11  C   UNL     1     -18.396   0.848  27.585  0.00  0.00    +0.000 C 
ATOM     12  C   UNL     1     -18.430   1.850  26.392  0.00  0.00    +0.000 C 
ATOM     13  C   UNL     1     -17.192   2.769  26.561  0.00  0.00    +0.000 C 
ATOM     14  C   UNL     1     -15.856   1.994  26.673  0.00  0.00    +0.000 C 
ATOM     15  C   UNL     1     -15.781   1.218  28.023  0.00  0.00    +0.000 C 
ATOM     16  C   UNL     1     -15.648   2.256  29.153  0.00  0.00    +0.000 C 
ATOM     17  C   UNL     1     -14.606   0.186  28.174  0.00  0.00    +0.000 C 
ATOM     18  C   UNL     1     -14.983  -0.954  27.244  0.00  0.00    +0.000 C 
ATOM     19  C   UNL     1     -16.505  -0.935  27.204  0.00  0.00    +0.000 C 
ATOM     20  C   UNL     1     -17.009   0.275  28.030  0.00  0.00    +0.000 C 
ENDROOT
BRANCH  17  21
ATOM     21  C   UNL     1     -14.466  -0.455  29.587  0.00  0.00    +0.000 C 
ATOM     22  O   UNL     1     -15.370  -0.429  30.432  0.00  0.00    +0.000 OA
BRANCH  21  23
ATOM     23  C   UNL     1     -13.157  -1.146  29.935  0.00  0.00    +0.000 C 
BRANCH  23  24
ATOM     24  O   UNL     1     -12.466  -0.443  30.962  0.00  0.00    +0.000 OA
ATOM     25  H   UNL     1     -13.117   0.163  31.369  0.00  0.00    +0.000 HD
ENDBRANCH  23  24
ENDBRANCH  21  23
ENDBRANCH  17  21
TORSDOF 3
ENDMDL
MODEL 2
REMARK VINA RESULT:    -6.623      3.841      5.556
REMARK INTER + INTRA:          -7.149
REMARK INTER:                  -7.692
REMARK INTRA:                   0.543
REMARK UNBOUND:                 0.442
REMARK  Name = C:\Users\sofiya chavarekar\OneDrive\Assignment- Module 1\PROJECT(AI-based drug target identification for SDH-related rare disorders)\Data\Ligands\PDB\Ligand_0103.pdb
REMARK  5 active torsions:
REMARK  status: ('A' for Active; 'I' for Inactive)
REMARK    1  A    between atoms: C_1  and  C_2
REMARK    2  A    between atoms: C_15  and  C_16
REMARK    3  A    between atoms: C_17  and  C_18
REMARK    4  A    between atoms: C_18  and  C_20
REMARK    5  A    between atoms: C_20  and  O_21
REMARK                            x       y       z     vdW  Elec       q    Type
REMARK                         _______ _______ _______ _____ _____    ______ ____
ROOT
ATOM      1  C   UNL     1     -17.239   4.493  27.712  0.00  0.00    +0.000 C 
ATOM      2  C   UNL     1     -16.374   3.189  27.524  0.00  0.00    +0.000 C 
ATOM      3  C   UNL     1     -15.686   3.361  26.119  0.00  0.00    +0.000 C 
ATOM      4  C   UNL     1     -14.756   4.613  26.063  0.00  0.00    +0.000 C 
ATOM      5  C   UNL     1     -14.460   5.218  27.430  0.00  0.00    +0.000 C 
ATOM      6  O   UNL     1     -14.225   6.405  27.611  0.00  0.00    +0.000 OA
ATOM      7  C   UNL     1     -14.332   4.246  28.541  0.00  0.00    +0.000 C 
ATOM      8  C   UNL     1     -15.107   3.153  28.401  0.00  0.00    +0.000 C 
ATOM      9  C   UNL     1     -14.448   1.838  28.760  0.00  0.00    +0.000 C 
ATOM     10  C   UNL     1     -15.205   0.582  28.364  0.00  0.00    +0.000 C 
ATOM     11  C   UNL     1     -16.721   0.696  28.507  0.00  0.00    +0.000 C 
ATOM     12  C   UNL     1     -17.279   1.866  27.643  0.00  0.00    +0.000 C 
ATOM     13  C   UNL     1     -18.775   2.013  28.024  0.00  0.00    +0.000 C 
ATOM     14  C   UNL     1     -19.012   2.205  29.543  0.00  0.00    +0.000 C 
ATOM     15  C   UNL     1     -18.679   0.896  30.322  0.00  0.00    +0.000 C 
ATOM     16  C   UNL     1     -19.751  -0.150  29.959  0.00  0.00    +0.000 C 
ATOM     17  C   UNL     1     -18.625   1.007  31.889  0.00  0.00    +0.000 C 
ATOM     18  C   UNL     1     -17.359   1.799  32.167  0.00  0.00    +0.000 C 
ATOM     19  C   UNL     1     -16.436   1.477  30.999  0.00  0.00    +0.000 C 
ATOM     20  C   UNL     1     -17.200   0.580  29.993  0.00  0.00    +0.000 C 
ENDROOT
BRANCH  17  21
ATOM     21  C   UNL     1     -18.447  -0.345  32.642  0.00  0.00    +0.000 C 
ATOM     22  O   UNL     1     -19.393  -1.094  32.918  0.00  0.00    +0.000 OA
BRANCH  21  23
ATOM     23  C   UNL     1     -17.042  -0.758  33.051  0.00  0.00    +0.000 C 
BRANCH  23  24
ATOM     24  O   UNL     1     -16.993  -1.106  34.430  0.00  0.00    +0.000 OA
ATOM     25  H   UNL     1     -16.569  -1.986  34.478  0.00  0.00    +0.000 HD
ENDBRANCH  23  24
ENDBRANCH  21  23
ENDBRANCH  17  21
TORSDOF 3
ENDMDL
MODEL 3
REMARK VINA RESULT:    -6.532      2.855      3.890
REMARK INTER + INTRA:          -7.044
REMARK INTER:                  -7.383
REMARK INTRA:                   0.339
REMARK UNBOUND:                 0.442
REMARK  Name = C:\Users\sofiya chavarekar\OneDrive\Assignment- Module 1\PROJECT(AI-based drug target identification for SDH-related rare disorders)\Data\Ligands\PDB\Ligand_0103.pdb
REMARK  5 active torsions:
REMARK  status: ('A' for Active; 'I' for Inactive)
REMARK    1  A    between atoms: C_1  and  C_2
REMARK    2  A    between atoms: C_15  and  C_16
REMARK    3  A    between atoms: C_17  and  C_18
REMARK    4  A    between atoms: C_18  and  C_20
REMARK    5  A    between atoms: C_20  and  O_21
REMARK                            x       y       z     vdW  Elec       q    Type
REMARK                         _______ _______ _______ _____ _____    ______ ____
ROOT
ATOM      1  C   UNL     1     -16.155  -0.476  26.067  0.00  0.00    +0.000 C 
ATOM      2  C   UNL     1     -17.531   0.289  26.143  0.00  0.00    +0.000 C 
ATOM      3  C   UNL     1     -17.613   1.105  24.800  0.00  0.00    +0.000 C 
ATOM      4  C   UNL     1     -17.603   0.181  23.543  0.00  0.00    +0.000 C 
ATOM      5  C   UNL     1     -17.829  -1.292  23.863  0.00  0.00    +0.000 C 
ATOM      6  O   UNL     1     -17.375  -2.210  23.194  0.00  0.00    +0.000 OA
ATOM      7  C   UNL     1     -18.768  -1.563  24.977  0.00  0.00    +0.000 C 
ATOM      8  C   UNL     1     -18.758  -0.620  25.939  0.00  0.00    +0.000 C 
ATOM      9  C   UNL     1     -20.118  -0.220  26.472  0.00  0.00    +0.000 C 
ATOM     10  C   UNL     1     -20.152   1.013  27.357  0.00  0.00    +0.000 C 
ATOM     11  C   UNL     1     -18.943   1.153  28.280  0.00  0.00    +0.000 C 
ATOM     12  C   UNL     1     -17.618   1.203  27.462  0.00  0.00    +0.000 C 
ATOM     13  C   UNL     1     -16.465   1.138  28.498  0.00  0.00    +0.000 C 
ATOM     14  C   UNL     1     -16.554  -0.084  29.446  0.00  0.00    +0.000 C 
ATOM     15  C   UNL     1     -17.761   0.062  30.421  0.00  0.00    +0.000 C 
ATOM     16  C   UNL     1     -17.438   1.207  31.399  0.00  0.00    +0.000 C 
ATOM     17  C   UNL     1     -18.135  -1.207  31.270  0.00  0.00    +0.000 C 
ATOM     18  C   UNL     1     -18.735  -2.171  30.261  0.00  0.00    +0.000 C 
ATOM     19  C   UNL     1     -19.344  -1.280  29.186  0.00  0.00    +0.000 C 
ATOM     20  C   UNL     1     -19.012   0.196  29.518  0.00  0.00    +0.000 C 
ENDROOT
BRANCH  17  21
ATOM     21  C   UNL     1     -19.242  -0.982  32.343  0.00  0.00    +0.000 C 
ATOM     22  O   UNL     1     -19.088  -0.247  33.327  0.00  0.00    +0.000 OA
BRANCH  21  23
ATOM     23  C   UNL     1     -20.570  -1.701  32.166  0.00  0.00    +0.000 C 
BRANCH  23  24
ATOM     24  O   UNL     1     -21.623  -0.776  31.921  0.00  0.00    +0.000 OA
ATOM     25  H   UNL     1     -21.711  -0.237  32.733  0.00  0.00    +0.000 HD
ENDBRANCH  23  24
ENDBRANCH  21  23
ENDBRANCH  17  21
TORSDOF 3
ENDMDL
MODEL 4
REMARK VINA RESULT:    -6.450      3.797      6.071
REMARK INTER + INTRA:          -6.951
REMARK INTER:                  -7.498
REMARK INTRA:                   0.547
REMARK UNBOUND:                 0.442
REMARK  Name = C:\Users\sofiya chavarekar\OneDrive\Assignment- Module 1\PROJECT(AI-based drug target identification for SDH-related rare disorders)\Data\Ligands\PDB\Ligand_0103.pdb
REMARK  5 active torsions:
REMARK  status: ('A' for Active; 'I' for Inactive)
REMARK    1  A    between atoms: C_1  and  C_2
REMARK    2  A    between atoms: C_15  and  C_16
REMARK    3  A    between atoms: C_17  and  C_18
REMARK    4  A    between atoms: C_18  and  C_20
REMARK    5  A    between atoms: C_20  and  O_21
REMARK                            x       y       z     vdW  Elec       q    Type
REMARK                         _______ _______ _______ _____ _____    ______ ____
ROOT
ATOM      1  C   UNL     1     -16.310   1.090  29.936  0.00  0.00    +0.000 C 
ATOM      2  C   UNL     1     -16.740   1.064  28.420  0.00  0.00    +0.000 C 
ATOM      3  C   UNL     1     -17.175  -0.424  28.150  0.00  0.00    +0.000 C 
ATOM      4  C   UNL     1     -18.383  -0.859  29.038  0.00  0.00    +0.000 C 
ATOM      5  C   UNL     1     -19.079   0.303  29.736  0.00  0.00    +0.000 C 
ATOM      6  O   UNL     1     -19.656   0.202  30.810  0.00  0.00    +0.000 OA
ATOM      7  C   UNL     1     -19.143   1.564  28.961  0.00  0.00    +0.000 C 
ATOM      8  C   UNL     1     -18.089   1.755  28.145  0.00  0.00    +0.000 C 
ATOM      9  C   UNL     1     -18.421   2.289  26.767  0.00  0.00    +0.000 C 
ATOM     10  C   UNL     1     -17.293   2.264  25.751  0.00  0.00    +0.000 C 
ATOM     11  C   UNL     1     -15.918   2.578  26.337  0.00  0.00    +0.000 C 
ATOM     12  C   UNL     1     -15.548   1.572  27.468  0.00  0.00    +0.000 C 
ATOM     13  C   UNL     1     -14.245   2.107  28.117  0.00  0.00    +0.000 C 
ATOM     14  C   UNL     1     -14.355   3.571  28.611  0.00  0.00    +0.000 C 
ATOM     15  C   UNL     1     -14.459   4.553  27.405  0.00  0.00    +0.000 C 
ATOM     16  C   UNL     1     -13.096   4.557  26.686  0.00  0.00    +0.000 C 
ATOM     17  C   UNL     1     -14.831   6.042  27.743  0.00  0.00    +0.000 C 
ATOM     18  C   UNL     1     -16.292   5.982  28.151  0.00  0.00    +0.000 C 
ATOM     19  C   UNL     1     -16.861   4.795  27.384  0.00  0.00    +0.000 C 
ATOM     20  C   UNL     1     -15.710   4.106  26.610  0.00  0.00    +0.000 C 
ENDROOT
BRANCH  17  21
ATOM     21  C   UNL     1     -14.772   7.028  26.538  0.00  0.00    +0.000 C 
ATOM     22  O   UNL     1     -15.778   7.560  26.052  0.00  0.00    +0.000 OA
BRANCH  21  23
ATOM     23  C   UNL     1     -13.411   7.349  25.940  0.00  0.00    +0.000 C 
BRANCH  23  24
ATOM     24  O   UNL     1     -13.402   7.117  24.536  0.00  0.00    +0.000 OA
ATOM     25  H   UNL     1     -14.215   7.532  24.183  0.00  0.00    +0.000 HD
ENDBRANCH  23  24
ENDBRANCH  21  23
ENDBRANCH  17  21
TORSDOF 3
ENDMDL
MODEL 5
REMARK VINA RESULT:    -6.148      3.614      6.730
REMARK INTER + INTRA:          -6.604
REMARK INTER:                  -6.898
REMARK INTRA:                   0.294
REMARK UNBOUND:                 0.442
REMARK  Name = C:\Users\sofiya chavarekar\OneDrive\Assignment- Module 1\PROJECT(AI-based drug target identification for SDH-related rare disorders)\Data\Ligands\PDB\Ligand_0103.pdb
REMARK  5 active torsions:
REMARK  status: ('A' for Active; 'I' for Inactive)
REMARK    1  A    between atoms: C_1  and  C_2
REMARK    2  A    between atoms: C_15  and  C_16
REMARK    3  A    between atoms: C_17  and  C_18
REMARK    4  A    between atoms: C_18  and  C_20
REMARK    5  A    between atoms: C_20  and  O_21
REMARK                            x       y       z     vdW  Elec       q    Type
REMARK                         _______ _______ _______ _____ _____    ______ ____
ROOT
ATOM      1  C   UNL     1     -15.701  -0.437  30.369  0.00  0.00    +0.000 C 
ATOM      2  C   UNL     1     -17.065   0.352  30.321  0.00  0.00    +0.000 C 
ATOM      3  C   UNL     1     -18.130  -0.648  30.905  0.00  0.00    +0.000 C 
ATOM      4  C   UNL     1     -17.817  -1.053  32.379  0.00  0.00    +0.000 C 
ATOM      5  C   UNL     1     -16.757  -0.182  33.042  0.00  0.00    +0.000 C 
ATOM      6  O   UNL     1     -16.007  -0.578  33.923  0.00  0.00    +0.000 OA
ATOM      7  C   UNL     1     -16.774   1.247  32.652  0.00  0.00    +0.000 C 
ATOM      8  C   UNL     1     -17.179   1.461  31.385  0.00  0.00    +0.000 C 
ATOM      9  C   UNL     1     -18.122   2.630  31.191  0.00  0.00    +0.000 C 
ATOM     10  C   UNL     1     -18.792   2.728  29.832  0.00  0.00    +0.000 C 
ATOM     11  C   UNL     1     -17.897   2.319  28.664  0.00  0.00    +0.000 C 
ATOM     12  C   UNL     1     -17.397   0.852  28.830  0.00  0.00    +0.000 C 
ATOM     13  C   UNL     1     -16.349   0.621  27.710  0.00  0.00    +0.000 C 
ATOM     14  C   UNL     1     -15.203   1.664  27.710  0.00  0.00    +0.000 C 
ATOM     15  C   UNL     1     -15.733   3.064  27.275  0.00  0.00    +0.000 C 
ATOM     16  C   UNL     1     -16.096   2.984  25.780  0.00  0.00    +0.000 C 
ATOM     17  C   UNL     1     -14.751   4.276  27.469  0.00  0.00    +0.000 C 
ATOM     18  C   UNL     1     -14.695   4.479  28.973  0.00  0.00    +0.000 C 
ATOM     19  C   UNL     1     -16.047   3.995  29.481  0.00  0.00    +0.000 C 
ATOM     20  C   UNL     1     -16.849   3.419  28.287  0.00  0.00    +0.000 C 
ENDROOT
BRANCH  17  21
ATOM     21  C   UNL     1     -15.249   5.631  26.882  0.00  0.00    +0.000 C 
ATOM     22  O   UNL     1     -16.395   6.063  27.061  0.00  0.00    +0.000 OA
BRANCH  21  23
ATOM     23  C   UNL     1     -14.275   6.455  26.056  0.00  0.00    +0.000 C 
BRANCH  23  24
ATOM     24  O   UNL     1     -13.577   7.391  26.870  0.00  0.00    +0.000 OA
ATOM     25  H   UNL     1     -12.633   7.137  26.835  0.00  0.00    +0.000 HD
ENDBRANCH  23  24
ENDBRANCH  21  23
ENDBRANCH  17  21
TORSDOF 3
ENDMDL
MODEL 6
REMARK VINA RESULT:    -5.984      4.591      6.280
REMARK INTER + INTRA:          -6.416
REMARK INTER:                  -6.774
REMARK INTRA:                   0.358
REMARK UNBOUND:                 0.442
REMARK  Name = C:\Users\sofiya chavarekar\OneDrive\Assignment- Module 1\PROJECT(AI-based drug target identification for SDH-related rare disorders)\Data\Ligands\PDB\Ligand_0103.pdb
REMARK  5 active torsions:
REMARK  status: ('A' for Active; 'I' for Inactive)
REMARK    1  A    between atoms: C_1  and  C_2
REMARK    2  A    between atoms: C_15  and  C_16
REMARK    3  A    between atoms: C_17  and  C_18
REMARK    4  A    between atoms: C_18  and  C_20
REMARK    5  A    between atoms: C_20  and  O_21
REMARK                            x       y       z     vdW  Elec       q    Type
REMARK                         _______ _______ _______ _____ _____    ______ ____
ROOT
ATOM      1  C   UNL     1     -19.943   0.564  28.805  0.00  0.00    +0.000 C 
ATOM      2  C   UNL     1     -19.315  -0.423  29.861  0.00  0.00    +0.000 C 
ATOM      3  C   UNL     1     -19.495  -1.854  29.231  0.00  0.00    +0.000 C 
ATOM      4  C   UNL     1     -18.743  -2.003  27.872  0.00  0.00    +0.000 C 
ATOM      5  C   UNL     1     -17.757  -0.875  27.590  0.00  0.00    +0.000 C 
ATOM      6  O   UNL     1     -17.463  -0.495  26.465  0.00  0.00    +0.000 OA
ATOM      7  C   UNL     1     -17.048  -0.340  28.777  0.00  0.00    +0.000 C 
ATOM      8  C   UNL     1     -17.775  -0.382  29.910  0.00  0.00    +0.000 C 
ATOM      9  C   UNL     1     -17.025  -0.826  31.148  0.00  0.00    +0.000 C 
ATOM     10  C   UNL     1     -17.875  -1.132  32.369  0.00  0.00    +0.000 C 
ATOM     11  C   UNL     1     -19.074  -0.202  32.544  0.00  0.00    +0.000 C 
ATOM     12  C   UNL     1     -20.011  -0.258  31.300  0.00  0.00    +0.000 C 
ATOM     13  C   UNL     1     -21.065   0.863  31.499  0.00  0.00    +0.000 C 
ATOM     14  C   UNL     1     -20.444   2.262  31.737  0.00  0.00    +0.000 C 
ATOM     15  C   UNL     1     -19.743   2.324  33.128  0.00  0.00    +0.000 C 
ATOM     16  C   UNL     1     -20.840   2.270  34.208  0.00  0.00    +0.000 C 
ATOM     17  C   UNL     1     -18.852   3.588  33.408  0.00  0.00    +0.000 C 
ATOM     18  C   UNL     1     -17.637   3.397  32.516  0.00  0.00    +0.000 C 
ATOM     19  C   UNL     1     -17.490   1.887  32.379  0.00  0.00    +0.000 C 
ATOM     20  C   UNL     1     -18.675   1.204  33.106  0.00  0.00    +0.000 C 
ENDROOT
BRANCH  17  21
ATOM     21  C   UNL     1     -18.294   3.696  34.858  0.00  0.00    +0.000 C 
ATOM     22  O   UNL     1     -18.995   3.532  35.865  0.00  0.00    +0.000 OA
BRANCH  21  23
ATOM     23  C   UNL     1     -16.818   4.014  35.037  0.00  0.00    +0.000 C 
BRANCH  23  24
ATOM     24  O   UNL     1     -16.100   2.872  35.491  0.00  0.00    +0.000 OA
ATOM     25  H   UNL     1     -16.718   2.363  36.052  0.00  0.00    +0.000 HD
ENDBRANCH  23  24
ENDBRANCH  21  23
ENDBRANCH  17  21
TORSDOF 3
ENDMDL
MODEL 7
REMARK VINA RESULT:    -5.918      2.680      6.391
REMARK INTER + INTRA:          -6.341
REMARK INTER:                  -6.722
REMARK INTRA:                   0.382
REMARK UNBOUND:                 0.442
REMARK  Name = C:\Users\sofiya chavarekar\OneDrive\Assignment- Module 1\PROJECT(AI-based drug target identification for SDH-related rare disorders)\Data\Ligands\PDB\Ligand_0103.pdb
REMARK  5 active torsions:
REMARK  status: ('A' for Active; 'I' for Inactive)
REMARK    1  A    between atoms: C_1  and  C_2
REMARK    2  A    between atoms: C_15  and  C_16
REMARK    3  A    between atoms: C_17  and  C_18
REMARK    4  A    between atoms: C_18  and  C_20
REMARK    5  A    between atoms: C_20  and  O_21
REMARK                            x       y       z     vdW  Elec       q    Type
REMARK                         _______ _______ _______ _____ _____    ______ ____
ROOT
ATOM      1  C   UNL     1     -19.368   1.987  30.444  0.00  0.00    +0.000 C 
ATOM      2  C   UNL     1     -17.830   1.664  30.327  0.00  0.00    +0.000 C 
ATOM      3  C   UNL     1     -17.168   2.411  31.543  0.00  0.00    +0.000 C 
ATOM      4  C   UNL     1     -17.702   1.897  32.917  0.00  0.00    +0.000 C 
ATOM      5  C   UNL     1     -18.496   0.600  32.819  0.00  0.00    +0.000 C 
ATOM      6  O   UNL     1     -19.397   0.296  33.588  0.00  0.00    +0.000 OA
ATOM      7  C   UNL     1     -18.016  -0.364  31.801  0.00  0.00    +0.000 C 
ATOM      8  C   UNL     1     -17.469   0.217  30.716  0.00  0.00    +0.000 C 
ATOM      9  C   UNL     1     -16.203  -0.433  30.198  0.00  0.00    +0.000 C 
ATOM     10  C   UNL     1     -15.431   0.350  29.150  0.00  0.00    +0.000 C 
ATOM     11  C   UNL     1     -16.314   1.106  28.160  0.00  0.00    +0.000 C 
ATOM     12  C   UNL     1     -17.247   2.112  28.898  0.00  0.00    +0.000 C 
ATOM     13  C   UNL     1     -18.226   2.663  27.827  0.00  0.00    +0.000 C 
ATOM     14  C   UNL     1     -18.998   1.556  27.066  0.00  0.00    +0.000 C 
ATOM     15  C   UNL     1     -18.036   0.752  26.140  0.00  0.00    +0.000 C 
ATOM     16  C   UNL     1     -17.598   1.686  24.995  0.00  0.00    +0.000 C 
ATOM     17  C   UNL     1     -18.615  -0.560  25.498  0.00  0.00    +0.000 C 
ATOM     18  C   UNL     1     -18.724  -1.532  26.660  0.00  0.00    +0.000 C 
ATOM     19  C   UNL     1     -17.626  -1.106  27.626  0.00  0.00    +0.000 C 
ATOM     20  C   UNL     1     -16.946   0.171  27.074  0.00  0.00    +0.000 C 
ENDROOT
BRANCH  17  21
ATOM     21  C   UNL     1     -17.686  -1.254  24.457  0.00  0.00    +0.000 C 
ATOM     22  O   UNL     1     -16.453  -1.138  24.471  0.00  0.00    +0.000 OA
BRANCH  21  23
ATOM     23  C   UNL     1     -18.330  -2.112  23.381  0.00  0.00    +0.000 C 
BRANCH  23  24
ATOM     24  O   UNL     1     -17.891  -3.463  23.473  0.00  0.00    +0.000 OA
ATOM     25  H   UNL     1     -17.173  -3.566  22.817  0.00  0.00    +0.000 HD
ENDBRANCH  23  24
ENDBRANCH  21  23
ENDBRANCH  17  21
TORSDOF 3
ENDMDL
MODEL 8
REMARK VINA RESULT:    -5.918      3.617      5.407
REMARK INTER + INTRA:          -6.340
REMARK INTER:                  -6.581
REMARK INTRA:                   0.241
REMARK UNBOUND:                 0.442
REMARK  Name = C:\Users\sofiya chavarekar\OneDrive\Assignment- Module 1\PROJECT(AI-based drug target identification for SDH-related rare disorders)\Data\Ligands\PDB\Ligand_0103.pdb
REMARK  5 active torsions:
REMARK  status: ('A' for Active; 'I' for Inactive)
REMARK    1  A    between atoms: C_1  and  C_2
REMARK    2  A    between atoms: C_15  and  C_16
REMARK    3  A    between atoms: C_17  and  C_18
REMARK    4  A    between atoms: C_18  and  C_20
REMARK    5  A    between atoms: C_20  and  O_21
REMARK                            x       y       z     vdW  Elec       q    Type
REMARK                         _______ _______ _______ _____ _____    ______ ____
ROOT
ATOM      1  C   UNL     1     -14.986   5.205  29.102  0.00  0.00    +0.000 C 
ATOM      2  C   UNL     1     -16.062   4.676  28.080  0.00  0.00    +0.000 C 
ATOM      3  C   UNL     1     -16.220   5.834  27.025  0.00  0.00    +0.000 C 
ATOM      4  C   UNL     1     -14.888   6.131  26.268  0.00  0.00    +0.000 C 
ATOM      5  C   UNL     1     -13.818   5.064  26.468  0.00  0.00    +0.000 C 
ATOM      6  O   UNL     1     -12.617   5.292  26.433  0.00  0.00    +0.000 OA
ATOM      7  C   UNL     1     -14.320   3.674  26.571  0.00  0.00    +0.000 C 
ATOM      8  C   UNL     1     -15.537   3.575  27.139  0.00  0.00    +0.000 C 
ATOM      9  C   UNL     1     -16.488   2.601  26.475  0.00  0.00    +0.000 C 
ATOM     10  C   UNL     1     -17.934   2.665  26.931  0.00  0.00    +0.000 C 
ATOM     11  C   UNL     1     -18.107   2.942  28.423  0.00  0.00    +0.000 C 
ATOM     12  C   UNL     1     -17.433   4.289  28.824  0.00  0.00    +0.000 C 
ATOM     13  C   UNL     1     -17.493   4.361  30.372  0.00  0.00    +0.000 C 
ATOM     14  C   UNL     1     -16.867   3.130  31.074  0.00  0.00    +0.000 C 
ATOM     15  C   UNL     1     -17.744   1.862  30.846  0.00  0.00    +0.000 C 
ATOM     16  C   UNL     1     -19.055   2.051  31.634  0.00  0.00    +0.000 C 
ATOM     17  C   UNL     1     -17.116   0.488  31.278  0.00  0.00    +0.000 C 
ATOM     18  C   UNL     1     -16.025   0.233  30.252  0.00  0.00    +0.000 C 
ATOM     19  C   UNL     1     -16.508   0.937  28.990  0.00  0.00    +0.000 C 
ATOM     20  C   UNL     1     -17.827   1.683  29.310  0.00  0.00    +0.000 C 
ENDROOT
BRANCH  17  21
ATOM     21  C   UNL     1     -18.074  -0.737  31.183  0.00  0.00    +0.000 C 
ATOM     22  O   UNL     1     -18.288  -1.346  30.127  0.00  0.00    +0.000 OA
BRANCH  21  23
ATOM     23  C   UNL     1     -18.772  -1.201  32.452  0.00  0.00    +0.000 C 
BRANCH  23  24
ATOM     24  O   UNL     1     -18.027  -0.833  33.608  0.00  0.00    +0.000 OA
ATOM     25  H   UNL     1     -18.593  -1.042  34.379  0.00  0.00    +0.000 HD
ENDBRANCH  23  24
ENDBRANCH  21  23
ENDBRANCH  17  21
TORSDOF 3
ENDMDL
MODEL 9
REMARK VINA RESULT:    -5.848      4.078      7.511
REMARK INTER + INTRA:          -6.260
REMARK INTER:                  -6.523
REMARK INTRA:                   0.263
REMARK UNBOUND:                 0.442
REMARK  Name = C:\Users\sofiya chavarekar\OneDrive\Assignment- Module 1\PROJECT(AI-based drug target identification for SDH-related rare disorders)\Data\Ligands\PDB\Ligand_0103.pdb
REMARK  5 active torsions:
REMARK  status: ('A' for Active; 'I' for Inactive)
REMARK    1  A    between atoms: C_1  and  C_2
REMARK    2  A    between atoms: C_15  and  C_16
REMARK    3  A    between atoms: C_17  and  C_18
REMARK    4  A    between atoms: C_18  and  C_20
REMARK    5  A    between atoms: C_20  and  O_21
REMARK                            x       y       z     vdW  Elec       q    Type
REMARK                         _______ _______ _______ _____ _____    ______ ____
ROOT
ATOM      1  C   UNL     1     -18.064   3.594  31.874  0.00  0.00    +0.000 C 
ATOM      2  C   UNL     1     -17.633   2.197  32.461  0.00  0.00    +0.000 C 
ATOM      3  C   UNL     1     -16.802   2.541  33.753  0.00  0.00    +0.000 C 
ATOM      4  C   UNL     1     -17.649   3.310  34.814  0.00  0.00    +0.000 C 
ATOM      5  C   UNL     1     -19.146   3.295  34.532  0.00  0.00    +0.000 C 
ATOM      6  O   UNL     1     -19.910   4.188  34.872  0.00  0.00    +0.000 OA
ATOM      7  C   UNL     1     -19.667   2.045  33.930  0.00  0.00    +0.000 C 
ATOM      8  C   UNL     1     -18.786   1.420  33.126  0.00  0.00    +0.000 C 
ATOM      9  C   UNL     1     -18.725  -0.086  33.273  0.00  0.00    +0.000 C 
ATOM     10  C   UNL     1     -17.568  -0.778  32.575  0.00  0.00    +0.000 C 
ATOM     11  C   UNL     1     -17.197  -0.167  31.225  0.00  0.00    +0.000 C 
ATOM     12  C   UNL     1     -16.816   1.336  31.377  0.00  0.00    +0.000 C 
ATOM     13  C   UNL     1     -16.662   1.893  29.938  0.00  0.00    +0.000 C 
ATOM     14  C   UNL     1     -17.909   1.664  29.049  0.00  0.00    +0.000 C 
ATOM     15  C   UNL     1     -18.079   0.151  28.717  0.00  0.00    +0.000 C 
ATOM     16  C   UNL     1     -16.931  -0.253  27.772  0.00  0.00    +0.000 C 
ATOM     17  C   UNL     1     -19.433  -0.272  28.039  0.00  0.00    +0.000 C 
ATOM     18  C   UNL     1     -20.466  -0.134  29.144  0.00  0.00    +0.000 C 
ATOM     19  C   UNL     1     -19.692  -0.383  30.432  0.00  0.00    +0.000 C 
ATOM     20  C   UNL     1     -18.194  -0.565  30.085  0.00  0.00    +0.000 C 
ENDROOT
BRANCH  17  21
ATOM     21  C   UNL     1     -19.507  -1.758  27.579  0.00  0.00    +0.000 C 
ATOM     22  O   UNL     1     -19.353  -2.712  28.353  0.00  0.00    +0.000 OA
BRANCH  21  23
ATOM     23  C   UNL     1     -19.784  -2.041  26.111  0.00  0.00    +0.000 C 
BRANCH  23  24
ATOM     24  O   UNL     1     -18.583  -2.006  25.348  0.00  0.00    +0.000 OA
ATOM     25  H   UNL     1     -18.497  -1.092  25.011  0.00  0.00    +0.000 HD
ENDBRANCH  23  24
ENDBRANCH  21  23
ENDBRANCH  17  21
TORSDOF 3
ENDMDL
