MODEL 1
REMARK VINA RESULT:    -4.606      0.000      0.000
REMARK INTER + INTRA:          -4.740
REMARK INTER:                  -4.740
REMARK INTRA:                   0.000
REMARK UNBOUND:                 0.000
REMARK  Name = C:\Users\sofiya chavarekar\OneDrive\Assignment- Module 1\PROJECT(AI-based drug target identification for SDH-related rare disorders)\Data\Ligands\PDB\Ligand_0070.pdb
REMARK  2 active torsions:
REMARK  status: ('A' for Active; 'I' for Inactive)
REMARK    1  A    between atoms: C_1  and  C_2
REMARK    2  A    between atoms: C_6  and  O_7
REMARK                            x       y       z     vdW  Elec       q    Type
REMARK                         _______ _______ _______ _____ _____    ______ ____
ROOT
ATOM      1  C   UNL     1     -14.297   7.354  26.100  0.00  0.00    +0.000 C 
ATOM      2  C   UNL     1     -12.946   6.799  25.761  0.00  0.00    +0.000 A 
ATOM      3  C   UNL     1     -12.408   5.720  26.472  0.00  0.00    +0.000 A 
ATOM      4  C   UNL     1     -11.146   5.216  26.146  0.00  0.00    +0.000 A 
ATOM      5  C   UNL     1     -10.410   5.785  25.106  0.00  0.00    +0.000 A 
ATOM      6  C   UNL     1     -10.947   6.856  24.399  0.00  0.00    +0.000 A 
ATOM      7  C   UNL     1     -12.202   7.365  24.718  0.00  0.00    +0.000 A 
ENDROOT
BRANCH   6   8
ATOM      8  O   UNL     1     -10.266   7.442  23.373  0.00  0.00    +0.000 OA
ATOM      9  H   UNL     1      -9.552   7.982  23.748  0.00  0.00    +0.000 HD
ENDBRANCH   6   8
TORSDOF 1
ENDMDL
MODEL 2
REMARK VINA RESULT:    -4.593      0.958      2.775
REMARK INTER + INTRA:          -4.727
REMARK INTER:                  -4.727
REMARK INTRA:                   0.000
REMARK UNBOUND:                 0.000
REMARK  Name = C:\Users\sofiya chavarekar\OneDrive\Assignment- Module 1\PROJECT(AI-based drug target identification for SDH-related rare disorders)\Data\Ligands\PDB\Ligand_0070.pdb
REMARK  2 active torsions:
REMARK  status: ('A' for Active; 'I' for Inactive)
REMARK    1  A    between atoms: C_1  and  C_2
REMARK    2  A    between atoms: C_6  and  O_7
REMARK                            x       y       z     vdW  Elec       q    Type
REMARK                         _______ _______ _______ _____ _____    ______ ____
ROOT
ATOM      1  C   UNL     1      -9.651   3.577  26.153  0.00  0.00    +0.000 C 
ATOM      2  C   UNL     1     -10.433   4.796  25.765  0.00  0.00    +0.000 A 
ATOM      3  C   UNL     1     -11.591   5.164  26.460  0.00  0.00    +0.000 A 
ATOM      4  C   UNL     1     -12.311   6.302  26.085  0.00  0.00    +0.000 A 
ATOM      5  C   UNL     1     -11.880   7.082  25.011  0.00  0.00    +0.000 A 
ATOM      6  C   UNL     1     -10.728   6.716  24.323  0.00  0.00    +0.000 A 
ATOM      7  C   UNL     1     -10.007   5.585  24.689  0.00  0.00    +0.000 A 
ENDROOT
BRANCH   6   8
ATOM      8  O   UNL     1     -10.268   7.450  23.270  0.00  0.00    +0.000 OA
ATOM      9  H   UNL     1     -10.961   8.075  23.004  0.00  0.00    +0.000 HD
ENDBRANCH   6   8
TORSDOF 1
ENDMDL
MODEL 3
REMARK VINA RESULT:    -4.349      1.783      3.147
REMARK INTER + INTRA:          -4.476
REMARK INTER:                  -4.476
REMARK INTRA:                   0.000
REMARK UNBOUND:                 0.000
REMARK  Name = C:\Users\sofiya chavarekar\OneDrive\Assignment- Module 1\PROJECT(AI-based drug target identification for SDH-related rare disorders)\Data\Ligands\PDB\Ligand_0070.pdb
REMARK  2 active torsions:
REMARK  status: ('A' for Active; 'I' for Inactive)
REMARK    1  A    between atoms: C_1  and  C_2
REMARK    2  A    between atoms: C_6  and  O_7
REMARK                            x       y       z     vdW  Elec       q    Type
REMARK                         _______ _______ _______ _____ _____    ______ ____
ROOT
ATOM      1  C   UNL     1     -10.463   5.174  25.834  0.00  0.00    +0.000 C 
ATOM      2  C   UNL     1     -11.884   5.619  26.006  0.00  0.00    +0.000 A 
ATOM      3  C   UNL     1     -12.825   4.807  26.650  0.00  0.00    +0.000 A 
ATOM      4  C   UNL     1     -14.147   5.235  26.800  0.00  0.00    +0.000 A 
ATOM      5  C   UNL     1     -14.541   6.480  26.308  0.00  0.00    +0.000 A 
ATOM      6  C   UNL     1     -13.605   7.287  25.671  0.00  0.00    +0.000 A 
ATOM      7  C   UNL     1     -12.288   6.868  25.515  0.00  0.00    +0.000 A 
ENDROOT
BRANCH   6   8
ATOM      8  O   UNL     1     -13.944   8.512  25.177  0.00  0.00    +0.000 OA
ATOM      9  H   UNL     1     -13.913   8.472  24.207  0.00  0.00    +0.000 HD
ENDBRANCH   6   8
TORSDOF 1
ENDMDL
MODEL 4
REMARK VINA RESULT:    -4.315      1.821      2.106
REMARK INTER + INTRA:          -4.441
REMARK INTER:                  -4.441
REMARK INTRA:                   0.000
REMARK UNBOUND:                 0.000
REMARK  Name = C:\Users\sofiya chavarekar\OneDrive\Assignment- Module 1\PROJECT(AI-based drug target identification for SDH-related rare disorders)\Data\Ligands\PDB\Ligand_0070.pdb
REMARK  2 active torsions:
REMARK  status: ('A' for Active; 'I' for Inactive)
REMARK    1  A    between atoms: C_1  and  C_2
REMARK    2  A    between atoms: C_6  and  O_7
REMARK                            x       y       z     vdW  Elec       q    Type
REMARK                         _______ _______ _______ _____ _____    ______ ____
ROOT
ATOM      1  C   UNL     1     -15.422   4.525  26.733  0.00  0.00    +0.000 C 
ATOM      2  C   UNL     1     -14.108   5.127  26.336  0.00  0.00    +0.000 A 
ATOM      3  C   UNL     1     -12.901   4.619  26.829  0.00  0.00    +0.000 A 
ATOM      4  C   UNL     1     -11.684   5.194  26.451  0.00  0.00    +0.000 A 
ATOM      5  C   UNL     1     -11.663   6.282  25.578  0.00  0.00    +0.000 A 
ATOM      6  C   UNL     1     -12.864   6.784  25.087  0.00  0.00    +0.000 A 
ATOM      7  C   UNL     1     -14.079   6.220  25.459  0.00  0.00    +0.000 A 
ENDROOT
BRANCH   6   8
ATOM      8  O   UNL     1     -12.892   7.844  24.229  0.00  0.00    +0.000 OA
ATOM      9  H   UNL     1     -13.181   7.527  23.358  0.00  0.00    +0.000 HD
ENDBRANCH   6   8
TORSDOF 1
ENDMDL
MODEL 5
REMARK VINA RESULT:    -4.301      2.314      3.765
REMARK INTER + INTRA:          -4.427
REMARK INTER:                  -4.427
REMARK INTRA:                   0.000
REMARK UNBOUND:                 0.000
REMARK  Name = C:\Users\sofiya chavarekar\OneDrive\Assignment- Module 1\PROJECT(AI-based drug target identification for SDH-related rare disorders)\Data\Ligands\PDB\Ligand_0070.pdb
REMARK  2 active torsions:
REMARK  status: ('A' for Active; 'I' for Inactive)
REMARK    1  A    between atoms: C_1  and  C_2
REMARK    2  A    between atoms: C_6  and  O_7
REMARK                            x       y       z     vdW  Elec       q    Type
REMARK                         _______ _______ _______ _____ _____    ______ ____
ROOT
ATOM      1  C   UNL     1     -10.002   4.747  25.845  0.00  0.00    +0.000 C 
ATOM      2  C   UNL     1     -11.233   5.602  25.855  0.00  0.00    +0.000 A 
ATOM      3  C   UNL     1     -11.439   6.586  24.881  0.00  0.00    +0.000 A 
ATOM      4  C   UNL     1     -12.592   7.377  24.906  0.00  0.00    +0.000 A 
ATOM      5  C   UNL     1     -13.548   7.192  25.905  0.00  0.00    +0.000 A 
ATOM      6  C   UNL     1     -13.342   6.213  26.871  0.00  0.00    +0.000 A 
ATOM      7  C   UNL     1     -12.198   5.423  26.855  0.00  0.00    +0.000 A 
ENDROOT
BRANCH   6   8
ATOM      8  O   UNL     1     -14.250   5.995  27.865  0.00  0.00    +0.000 OA
ATOM      9  H   UNL     1     -15.114   5.818  27.459  0.00  0.00    +0.000 HD
ENDBRANCH   6   8
TORSDOF 1
ENDMDL
MODEL 6
REMARK VINA RESULT:    -4.108      1.881      2.634
REMARK INTER + INTRA:          -4.229
REMARK INTER:                  -4.229
REMARK INTRA:                   0.000
REMARK UNBOUND:                 0.000
REMARK  Name = C:\Users\sofiya chavarekar\OneDrive\Assignment- Module 1\PROJECT(AI-based drug target identification for SDH-related rare disorders)\Data\Ligands\PDB\Ligand_0070.pdb
REMARK  2 active torsions:
REMARK  status: ('A' for Active; 'I' for Inactive)
REMARK    1  A    between atoms: C_1  and  C_2
REMARK    2  A    between atoms: C_6  and  O_7
REMARK                            x       y       z     vdW  Elec       q    Type
REMARK                         _______ _______ _______ _____ _____    ______ ____
ROOT
ATOM      1  C   UNL     1     -14.848   4.408  26.939  0.00  0.00    +0.000 C 
ATOM      2  C   UNL     1     -13.696   5.180  26.368  0.00  0.00    +0.000 A 
ATOM      3  C   UNL     1     -13.902   6.364  25.651  0.00  0.00    +0.000 A 
ATOM      4  C   UNL     1     -12.818   7.070  25.123  0.00  0.00    +0.000 A 
ATOM      5  C   UNL     1     -11.518   6.599  25.306  0.00  0.00    +0.000 A 
ATOM      6  C   UNL     1     -11.314   5.423  26.020  0.00  0.00    +0.000 A 
ATOM      7  C   UNL     1     -12.387   4.713  26.548  0.00  0.00    +0.000 A 
ENDROOT
BRANCH   6   8
ATOM      8  O   UNL     1     -10.061   4.926  26.226  0.00  0.00    +0.000 OA
ATOM      9  H   UNL     1      -9.668   5.389  26.984  0.00  0.00    +0.000 HD
ENDBRANCH   6   8
TORSDOF 1
ENDMDL
MODEL 7
REMARK VINA RESULT:    -3.752      8.316      9.625
REMARK INTER + INTRA:          -3.861
REMARK INTER:                  -3.861
REMARK INTRA:                   0.000
REMARK UNBOUND:                 0.000
REMARK  Name = C:\Users\sofiya chavarekar\OneDrive\Assignment- Module 1\PROJECT(AI-based drug target identification for SDH-related rare disorders)\Data\Ligands\PDB\Ligand_0070.pdb
REMARK  2 active torsions:
REMARK  status: ('A' for Active; 'I' for Inactive)
REMARK    1  A    between atoms: C_1  and  C_2
REMARK    2  A    between atoms: C_6  and  O_7
REMARK                            x       y       z     vdW  Elec       q    Type
REMARK                         _______ _______ _______ _____ _____    ______ ____
ROOT
ATOM      1  C   UNL     1     -10.389  -2.270  28.834  0.00  0.00    +0.000 C 
ATOM      2  C   UNL     1     -11.696  -1.583  29.094  0.00  0.00    +0.000 A 
ATOM      3  C   UNL     1     -12.260  -0.718  28.149  0.00  0.00    +0.000 A 
ATOM      4  C   UNL     1     -13.478  -0.083  28.408  0.00  0.00    +0.000 A 
ATOM      5  C   UNL     1     -14.143  -0.307  29.614  0.00  0.00    +0.000 A 
ATOM      6  C   UNL     1     -13.583  -1.168  30.551  0.00  0.00    +0.000 A 
ATOM      7  C   UNL     1     -12.370  -1.803  30.302  0.00  0.00    +0.000 A 
ENDROOT
BRANCH   6   8
ATOM      8  O   UNL     1     -14.199  -1.419  31.742  0.00  0.00    +0.000 OA
ATOM      9  H   UNL     1     -13.654  -2.047  32.243  0.00  0.00    +0.000 HD
ENDBRANCH   6   8
TORSDOF 1
ENDMDL
MODEL 8
REMARK VINA RESULT:    -3.669      2.506      3.322
REMARK INTER + INTRA:          -3.776
REMARK INTER:                  -3.776
REMARK INTRA:                   0.000
REMARK UNBOUND:                 0.000
REMARK  Name = C:\Users\sofiya chavarekar\OneDrive\Assignment- Module 1\PROJECT(AI-based drug target identification for SDH-related rare disorders)\Data\Ligands\PDB\Ligand_0070.pdb
REMARK  2 active torsions:
REMARK  status: ('A' for Active; 'I' for Inactive)
REMARK    1  A    between atoms: C_1  and  C_2
REMARK    2  A    between atoms: C_6  and  O_7
REMARK                            x       y       z     vdW  Elec       q    Type
REMARK                         _______ _______ _______ _____ _____    ______ ____
ROOT
ATOM      1  C   UNL     1     -16.078   7.510  26.663  0.00  0.00    +0.000 C 
ATOM      2  C   UNL     1     -14.748   6.840  26.488  0.00  0.00    +0.000 A 
ATOM      3  C   UNL     1     -13.657   7.527  25.944  0.00  0.00    +0.000 A 
ATOM      4  C   UNL     1     -12.425   6.887  25.784  0.00  0.00    +0.000 A 
ATOM      5  C   UNL     1     -12.272   5.554  26.167  0.00  0.00    +0.000 A 
ATOM      6  C   UNL     1     -13.357   4.873  26.710  0.00  0.00    +0.000 A 
ATOM      7  C   UNL     1     -14.587   5.502  26.871  0.00  0.00    +0.000 A 
ENDROOT
BRANCH   6   8
ATOM      8  O   UNL     1     -13.253   3.571  27.101  0.00  0.00    +0.000 OA
ATOM      9  H   UNL     1     -13.592   3.494  28.008  0.00  0.00    +0.000 HD
ENDBRANCH   6   8
TORSDOF 1
ENDMDL
MODEL 9
REMARK VINA RESULT:    -3.490      1.712      2.424
REMARK INTER + INTRA:          -3.592
REMARK INTER:                  -3.592
REMARK INTRA:                   0.000
REMARK UNBOUND:                 0.000
REMARK  Name = C:\Users\sofiya chavarekar\OneDrive\Assignment- Module 1\PROJECT(AI-based drug target identification for SDH-related rare disorders)\Data\Ligands\PDB\Ligand_0070.pdb
REMARK  2 active torsions:
REMARK  status: ('A' for Active; 'I' for Inactive)
REMARK    1  A    between atoms: C_1  and  C_2
REMARK    2  A    between atoms: C_6  and  O_7
REMARK                            x       y       z     vdW  Elec       q    Type
REMARK                         _______ _______ _______ _____ _____    ______ ____
ROOT
ATOM      1  C   UNL     1     -15.600   8.578  26.411  0.00  0.00    +0.000 C 
ATOM      2  C   UNL     1     -14.670   7.402  26.423  0.00  0.00    +0.000 A 
ATOM      3  C   UNL     1     -15.093   6.149  26.881  0.00  0.00    +0.000 A 
ATOM      4  C   UNL     1     -14.213   5.063  26.888  0.00  0.00    +0.000 A 
ATOM      5  C   UNL     1     -12.902   5.220  26.437  0.00  0.00    +0.000 A 
ATOM      6  C   UNL     1     -12.484   6.465  25.980  0.00  0.00    +0.000 A 
ATOM      7  C   UNL     1     -13.352   7.551  25.971  0.00  0.00    +0.000 A 
ENDROOT
BRANCH   6   8
ATOM      8  O   UNL     1     -11.213   6.664  25.527  0.00  0.00    +0.000 OA
ATOM      9  H   UNL     1     -10.682   5.883  25.749  0.00  0.00    +0.000 HD
ENDBRANCH   6   8
TORSDOF 1
ENDMDL
